version 3
run ML-DSA-0-20260506-22:57:32-26100
attr configname ML-DSA
attr datetime 20260506-22:57:32
attr datetimef 20260506-225732
attr experiment ML-DSA
attr inifile omnetpp.ini
attr iterationvars ""
attr iterationvarsd ""
attr iterationvarsf ""
attr measurement ""
attr network KriptoAgi
attr processid 26100
attr repetition 0
attr replication #0
attr resultdir results
attr runnumber 0
attr seedset 0
config image-path ../../../../../home/oguzyl1907/omnetpp-6.0.3/samples/inet4.5/images
config description "Yuksek Performans - ML-DSA"
config *.sensor.app[0].messageLength 2420B
config *.sensor.udp.procDelay 0.850ms
config network KriptoAgi
config sim-time-limit 100s
config *.sensor.numApps 1
config *.sensor.app[0].typename UdpBasicApp
config *.sensor.app[0].destAddresses "\"gateway\""
config *.sensor.app[0].destPort 5000
config *.sensor.app[0].sendInterval 1s
config *.gateway.numApps 1
config *.gateway.app[0].typename UdpSink
config *.gateway.app[0].localPort 5000
config *.configurator.typename Ipv4NetworkConfigurator
config **.wlan[*].mgmt.typename Ieee80211MgmtAdhoc
config **.wlan[*].agent.typename ""

vector 0 KriptoAgi.sensor.wlan[0].mac.dcf frameSequenceActive:vector ETV
attr autoWarmupFilter false
attr interpolationmode sample-hold
attr recordingmode vector
attr source warmup(count(frameSequenceStarted)-count(frameSequenceFinished))
attr title "frame sequence active"
vector 1 KriptoAgi.sensor.wlan[0].mac.dcf.channelAccess.pendingQueue queueLength:vector ETV
attr autoWarmupFilter false
attr interpolationmode sample-hold
attr recordingmode vector
attr source "warmup(atomic(constant0(packetPushEnded) + count(packetPushStarted) - count(packetPulled) - count(packetRemoved) - count(packetDropped)))"
attr title "queue length"
attr unit pk
vector 2 KriptoAgi.sensor.wlan[0].mac.dcf.channelAccess.pendingQueue queueBitLength:vector ETV
attr autoWarmupFilter false
attr interpolationmode sample-hold
attr recordingmode vector
attr source "warmup(atomic(constant0(packetPushEnded) + sum(packetLength(packetPushStarted)) - sum(packetLength(packetPulled)) - sum(packetLength(packetRemoved)) - sum(packetLength(packetDropped))))"
attr title "queue bit length"
attr unit b
vector 3 KriptoAgi.sensor.wlan[0].mac.dcf.channelAccess.inProgressFrames queueLength:vector ETV
attr autoWarmupFilter false
attr interpolationmode sample-hold
attr recordingmode vector
attr source "warmup(count(packetEnqueued) - count(packetDequeued))"
attr title "queue length"
vector 4 KriptoAgi.sensor.wlan[0].mac.dcf.channelAccess.contention backoffActive:vector ETV
attr autoWarmupFilter false
attr interpolationmode sample-hold
attr recordingmode vector
attr source warmup(count(backoffStarted)-count(backoffStopped))
attr title "backoff active"
vector 5 KriptoAgi.sensor.udp passedUpPk:vector(count) ETV
attr interpolationmode none
attr recordingmode vector(count)
attr source packetSentToUpper
attr title "packets passed up, count"
vector 6 KriptoAgi.sensor.udp droppedPkWrongPort:vector(count) ETV
attr interpolationmode none
attr recordingmode vector(count)
attr source packetDropReasonIsNoPortFound(packetDropped)
attr title "packets dropped (wrong port), count"
vector 7 KriptoAgi.sensor.udp droppedPkBadChecksum:vector(count) ETV
attr interpolationmode none
attr recordingmode vector(count)
attr source packetDropReasonIsIncorrectlyReceived(packetDropped)
attr title "packets dropped (checksum error), count"
vector 8 KriptoAgi.gateway.wlan[0].mac.dcf frameSequenceActive:vector ETV
attr autoWarmupFilter false
attr interpolationmode sample-hold
attr recordingmode vector
attr source warmup(count(frameSequenceStarted)-count(frameSequenceFinished))
attr title "frame sequence active"
vector 9 KriptoAgi.gateway.wlan[0].mac.dcf.channelAccess.pendingQueue queueLength:vector ETV
attr autoWarmupFilter false
attr interpolationmode sample-hold
attr recordingmode vector
attr source "warmup(atomic(constant0(packetPushEnded) + count(packetPushStarted) - count(packetPulled) - count(packetRemoved) - count(packetDropped)))"
attr title "queue length"
attr unit pk
vector 10 KriptoAgi.gateway.wlan[0].mac.dcf.channelAccess.pendingQueue queueBitLength:vector ETV
attr autoWarmupFilter false
attr interpolationmode sample-hold
attr recordingmode vector
attr source "warmup(atomic(constant0(packetPushEnded) + sum(packetLength(packetPushStarted)) - sum(packetLength(packetPulled)) - sum(packetLength(packetRemoved)) - sum(packetLength(packetDropped))))"
attr title "queue bit length"
attr unit b
vector 11 KriptoAgi.gateway.wlan[0].mac.dcf.channelAccess.inProgressFrames queueLength:vector ETV
attr autoWarmupFilter false
attr interpolationmode sample-hold
attr recordingmode vector
attr source "warmup(count(packetEnqueued) - count(packetDequeued))"
attr title "queue length"
vector 12 KriptoAgi.gateway.wlan[0].mac.dcf.channelAccess.contention backoffActive:vector ETV
attr autoWarmupFilter false
attr interpolationmode sample-hold
attr recordingmode vector
attr source warmup(count(backoffStarted)-count(backoffStopped))
attr title "backoff active"
vector 13 KriptoAgi.gateway.udp passedUpPk:vector(count) ETV
attr interpolationmode none
attr recordingmode vector(count)
attr source packetSentToUpper
attr title "packets passed up, count"
vector 14 KriptoAgi.gateway.udp droppedPkWrongPort:vector(count) ETV
attr interpolationmode none
attr recordingmode vector(count)
attr source packetDropReasonIsNoPortFound(packetDropped)
attr title "packets dropped (wrong port), count"
vector 15 KriptoAgi.gateway.udp droppedPkBadChecksum:vector(count) ETV
attr interpolationmode none
attr recordingmode vector(count)
attr source packetDropReasonIsIncorrectlyReceived(packetDropped)
attr title "packets dropped (checksum error), count"
vector 16 KriptoAgi.sensor.wlan[0].radio radioMode:vector ETV
attr interpolationmode sample-hold
attr recordingmode vector
attr source radioModeChanged
attr title "Radio mode"
vector 17 KriptoAgi.sensor.wlan[0].radio radioChannel:vector ETV
attr interpolationmode sample-hold
attr recordingmode vector
attr source radioChannelChanged
attr title "Radio channel"
vector 18 KriptoAgi.gateway.wlan[0].radio radioMode:vector ETV
attr interpolationmode sample-hold
attr recordingmode vector
attr source radioModeChanged
attr title "Radio mode"
vector 19 KriptoAgi.gateway.wlan[0].radio radioChannel:vector ETV
attr interpolationmode sample-hold
attr recordingmode vector
attr source radioChannelChanged
attr title "Radio channel"
vector 20 KriptoAgi.sensor.wlan[0].radio receptionState:vector ETV
attr interpolationmode sample-hold
attr recordingmode vector
attr source receptionStateChanged
attr title "Radio reception state"
vector 21 KriptoAgi.sensor.wlan[0].mac.dcf.channelAccess.contention stateChanged:vector ETV
attr enum IDLE,DEFER,IFS_AND_BACKOFF
attr interpolationmode none
attr recordingmode vector
attr title "contention state changed"
attr type enum
vector 22 KriptoAgi.gateway.wlan[0].radio receptionState:vector ETV
attr interpolationmode sample-hold
attr recordingmode vector
attr source receptionStateChanged
attr title "Radio reception state"
vector 23 KriptoAgi.gateway.wlan[0].mac.dcf.channelAccess.contention stateChanged:vector ETV
attr enum IDLE,DEFER,IFS_AND_BACKOFF
attr interpolationmode none
attr recordingmode vector
attr title "contention state changed"
attr type enum
vector 24 KriptoAgi.sensor.wlan[0].mac.dcf.recoveryProcedure contentionWindowChanged:vector ETV
attr interpolationmode sample-hold
attr recordingmode vector
attr title "contention window"
vector 25 KriptoAgi.gateway.wlan[0].mac.dcf.recoveryProcedure contentionWindowChanged:vector ETV
attr interpolationmode sample-hold
attr recordingmode vector
attr title "contention window"
vector 26 KriptoAgi.sensor.app[0] packetSent:vector(packetBytes) ETV
attr interpolationmode none
attr recordingmode vector(packetBytes)
attr source packetSent
attr title "packets sent, packetBytes"
vector 27 KriptoAgi.sensor.udp packetSent:vector(packetBytes) ETV
attr interpolationmode none
attr recordingmode vector(packetBytes)
attr source packetSent
attr title "packets sent, packetBytes"
vector 28 KriptoAgi.sensor.ipv4.arp arpRequestSent:vector(packetBytes) ETV
attr recordingmode vector(packetBytes)
attr source arpRequestSent
attr title "ARP request sent, packetBytes"
vector 29 KriptoAgi.sensor.wlan[0].mac packetReceivedFromUpper:vector(packetBytes) ETV
attr interpolationmode none
attr recordingmode vector(packetBytes)
attr title "packets received from upper layer, packetBytes"
vector 30 KriptoAgi.sensor.wlan[0].mac.dcf.channelAccess.pendingQueue incomingPacketLengths:vector ETV
attr interpolationmode none
attr recordingmode vector
attr source packetLength(packetPushStarted)
attr title "incoming packet lengths"
attr unit b
vector 31 KriptoAgi.sensor.wlan[0].mac.dcf.channelAccess.pendingQueue incomingDataRate:vector ETV
attr interpolationmode linear
attr recordingmode vector
attr source throughput(packetPushStarted)
attr title "incoming datarate"
attr unit bps
vector 32 KriptoAgi.sensor.wlan[0].mac.dcf.channelAccess.contention backoffPeriodGenerated:vector ETV
attr interpolationmode none
attr recordingmode vector
attr title "backoff periods"
vector 33 KriptoAgi.sensor.wlan[0].mac.dcf.channelAccess.pendingQueue queueingTime:vector ETV
attr interpolationmode none
attr recordingmode vector
attr source queueingTime(packetPulled)
attr title "queueing times"
attr unit s
vector 34 KriptoAgi.sensor.wlan[0].mac.dcf.channelAccess.pendingQueue outgoingPacketLengths:vector ETV
attr interpolationmode none
attr recordingmode vector
attr source packetLength(packetPulled)
attr title "outgoing packet lengths"
attr unit b
vector 35 KriptoAgi.sensor.wlan[0].mac.dcf.channelAccess.pendingQueue outgoingDataRate:vector ETV
attr interpolationmode linear
attr recordingmode vector
attr source throughput(packetPulled)
attr title "outgoing datarate"
attr unit bps
vector 36 KriptoAgi.sensor.wlan[0].mac.dcf datarateSelected:vector ETV
attr interpolationmode none
attr recordingmode vector
attr title "datarates selected"
vector 37 KriptoAgi.sensor.wlan[0].mac packetSentToLower:vector(packetBytes) ETV
attr interpolationmode none
attr recordingmode vector(packetBytes)
attr title "packets sent to lower layer, packetBytes"
vector 38 KriptoAgi.sensor.wlan[0].radio transmissionState:vector ETV
attr interpolationmode sample-hold
attr recordingmode vector
attr source transmissionStateChanged
attr title "Radio transmission state"
vector 39 KriptoAgi.sensor.wlan[0].mac.dcf packetSentToPeer:vector(packetBytes) ETV
attr interpolationmode none
attr recordingmode vector(packetBytes)
attr title "packets sent, packetBytes"
vector 40 KriptoAgi.sensor.wlan[0].mac.dcf packetSentToPeerMulticast:vector(packetBytes) ETV
attr interpolationmode none
attr recordingmode vector(packetBytes)
attr source ieee80211Multicast(packetSentToPeer)
attr title "packets sent: multicast, packetBytes"
vector 41 KriptoAgi.sensor.wlan[0].mac.dcf packetSentToPeerBroadcast:vector(packetBytes) ETV
attr interpolationmode none
attr recordingmode vector(packetBytes)
attr source ieee80211Broadcast(packetSentToPeer)
attr title "packets sent: broadcast , packetBytes"
vector 42 KriptoAgi.sensor.wlan[0].mac.dcf packetSentToPeerWithoutRetry:vector(packetBytes) ETV
attr interpolationmode none
attr recordingmode vector(packetBytes)
attr source ieee80211NotRetry(packetSentToPeer)
attr title "packets sent: without retry, packetBytes"
vector 43 KriptoAgi.sensor.wlan[0].mac.dcf.channelAccess.inProgressFrames queueingTime:vector ETV
attr interpolationmode none
attr recordingmode vector
attr source queueingTime(packetDequeued)
attr title "queueing times"
vector 44 KriptoAgi.gateway.wlan[0].mac packetReceivedFromLower:vector(packetBytes) ETV
attr interpolationmode none
attr recordingmode vector(packetBytes)
attr title "packets received from lower layer, packetBytes"
vector 45 KriptoAgi.gateway.wlan[0].mac.dcf packetReceivedFromPeer:vector(packetBytes) ETV
attr interpolationmode none
attr recordingmode vector(packetBytes)
attr title "packets received, packetBytes"
vector 46 KriptoAgi.gateway.wlan[0].mac.dcf packetReceivedFromPeerMulticast:vector(packetBytes) ETV
attr interpolationmode none
attr recordingmode vector(packetBytes)
attr source ieee80211Multicast(packetReceivedFromPeer)
attr title "packets received: multicast, packetBytes"
vector 47 KriptoAgi.gateway.wlan[0].mac.dcf packetReceivedFromPeerBroadcast:vector(packetBytes) ETV
attr interpolationmode none
attr recordingmode vector(packetBytes)
attr source ieee80211Broadcast(packetReceivedFromPeer)
attr title "packets received: broadcast, packetBytes"
vector 48 KriptoAgi.gateway.wlan[0].mac.dcf packetReceivedFromPeerWithoutRetry:vector(packetBytes) ETV
attr interpolationmode none
attr recordingmode vector(packetBytes)
attr source ieee80211NotRetry(packetReceivedFromPeer)
attr title "packets received: without retry, packetBytes"
vector 49 KriptoAgi.gateway.wlan[0].mac packetSentToUpper:vector(packetBytes) ETV
attr interpolationmode none
attr recordingmode vector(packetBytes)
attr title "packets sent to upper layer, packetBytes"
vector 50 KriptoAgi.gateway.ipv4.arp arpReplySent:vector(packetBytes) ETV
attr recordingmode vector(packetBytes)
attr source arpReplySent
attr title "ARP replies sent, packetBytes"
vector 51 KriptoAgi.gateway.wlan[0].mac packetReceivedFromUpper:vector(packetBytes) ETV
attr interpolationmode none
attr recordingmode vector(packetBytes)
attr title "packets received from upper layer, packetBytes"
vector 52 KriptoAgi.gateway.wlan[0].mac.dcf.channelAccess.pendingQueue incomingPacketLengths:vector ETV
attr interpolationmode none
attr recordingmode vector
attr source packetLength(packetPushStarted)
attr title "incoming packet lengths"
attr unit b
vector 53 KriptoAgi.gateway.wlan[0].mac.dcf.channelAccess.pendingQueue incomingDataRate:vector ETV
attr interpolationmode linear
attr recordingmode vector
attr source throughput(packetPushStarted)
attr title "incoming datarate"
attr unit bps
vector 54 KriptoAgi.gateway.wlan[0].mac.dcf.channelAccess.contention backoffPeriodGenerated:vector ETV
attr interpolationmode none
attr recordingmode vector
attr title "backoff periods"
vector 55 KriptoAgi.gateway.wlan[0].mac.dcf.channelAccess.pendingQueue queueingTime:vector ETV
attr interpolationmode none
attr recordingmode vector
attr source queueingTime(packetPulled)
attr title "queueing times"
attr unit s
vector 56 KriptoAgi.gateway.wlan[0].mac.dcf.channelAccess.pendingQueue outgoingPacketLengths:vector ETV
attr interpolationmode none
attr recordingmode vector
attr source packetLength(packetPulled)
attr title "outgoing packet lengths"
attr unit b
vector 57 KriptoAgi.gateway.wlan[0].mac.dcf.channelAccess.pendingQueue outgoingDataRate:vector ETV
attr interpolationmode linear
attr recordingmode vector
attr source throughput(packetPulled)
attr title "outgoing datarate"
attr unit bps
vector 58 KriptoAgi.gateway.wlan[0].mac.dcf datarateSelected:vector ETV
attr interpolationmode none
attr recordingmode vector
attr title "datarates selected"
vector 59 KriptoAgi.gateway.wlan[0].mac packetSentToLower:vector(packetBytes) ETV
attr interpolationmode none
attr recordingmode vector(packetBytes)
attr title "packets sent to lower layer, packetBytes"
vector 60 KriptoAgi.gateway.wlan[0].radio transmissionState:vector ETV
attr interpolationmode sample-hold
attr recordingmode vector
attr source transmissionStateChanged
attr title "Radio transmission state"
vector 61 KriptoAgi.gateway.wlan[0].mac.dcf packetSentToPeer:vector(packetBytes) ETV
attr interpolationmode none
attr recordingmode vector(packetBytes)
attr title "packets sent, packetBytes"
vector 62 KriptoAgi.gateway.wlan[0].mac.dcf packetSentToPeerUnicast:vector(packetBytes) ETV
attr interpolationmode none
attr recordingmode vector(packetBytes)
attr source ieee80211Unicast(packetSentToPeer)
attr title "packets sent: unicast, packetBytes"
vector 63 KriptoAgi.gateway.wlan[0].mac.dcf packetSentToPeerWithoutRetry:vector(packetBytes) ETV
attr interpolationmode none
attr recordingmode vector(packetBytes)
attr source ieee80211NotRetry(packetSentToPeer)
attr title "packets sent: without retry, packetBytes"
vector 64 KriptoAgi.gateway.wlan[0].mac.rx nav:vector ETV
attr interpolationmode linear
attr recordingmode vector
attr source navChanged
attr title "network allocation vector"
vector 65 KriptoAgi.sensor.wlan[0].mac packetReceivedFromLower:vector(packetBytes) ETV
attr interpolationmode none
attr recordingmode vector(packetBytes)
attr title "packets received from lower layer, packetBytes"
vector 66 KriptoAgi.sensor.wlan[0].mac.dcf packetReceivedFromPeer:vector(packetBytes) ETV
attr interpolationmode none
attr recordingmode vector(packetBytes)
attr title "packets received, packetBytes"
vector 67 KriptoAgi.sensor.wlan[0].mac.dcf packetReceivedFromPeerUnicast:vector(packetBytes) ETV
attr interpolationmode none
attr recordingmode vector(packetBytes)
attr source ieee80211Unicast(packetReceivedFromPeer)
attr title "packets received: unicast, packetBytes"
vector 68 KriptoAgi.sensor.wlan[0].mac.dcf packetReceivedFromPeerWithoutRetry:vector(packetBytes) ETV
attr interpolationmode none
attr recordingmode vector(packetBytes)
attr source ieee80211NotRetry(packetReceivedFromPeer)
attr title "packets received: without retry, packetBytes"
vector 69 KriptoAgi.sensor.wlan[0].mac packetSentToUpper:vector(packetBytes) ETV
attr interpolationmode none
attr recordingmode vector(packetBytes)
attr title "packets sent to upper layer, packetBytes"
vector 70 KriptoAgi.sensor.wlan[0].mac.dcf packetSentToPeerUnicast:vector(packetBytes) ETV
attr interpolationmode none
attr recordingmode vector(packetBytes)
attr source ieee80211Unicast(packetSentToPeer)
attr title "packets sent: unicast, packetBytes"
vector 71 KriptoAgi.gateway.wlan[0].mac.dcf packetReceivedFromPeerUnicast:vector(packetBytes) ETV
attr interpolationmode none
attr recordingmode vector(packetBytes)
attr source ieee80211Unicast(packetReceivedFromPeer)
attr title "packets received: unicast, packetBytes"
vector 72 KriptoAgi.gateway.wlan[0].mac.dcf.channelAccess.inProgressFrames queueingTime:vector ETV
attr interpolationmode none
attr recordingmode vector
attr source queueingTime(packetDequeued)
attr title "queueing times"
vector 73 KriptoAgi.sensor.wlan[0].mac.rx nav:vector ETV
attr interpolationmode linear
attr recordingmode vector
attr source navChanged
attr title "network allocation vector"
vector 74 KriptoAgi.gateway.udp packetReceived:vector(packetBytes) ETV
attr interpolationmode none
attr recordingmode vector(packetBytes)
attr source packetReceived
attr title "packets received, packetBytes"
vector 75 KriptoAgi.gateway.app[0] packetReceived:vector(packetBytes) ETV
attr interpolationmode none
attr recordingmode vector(packetBytes)
attr source packetReceived
attr title "packets received, packetBytes"
vector 76 KriptoAgi.gateway.app[0] throughput:vector ETV
attr recordingmode vector
attr source throughput(packetReceived)
attr title throughput
attr unit bps
vector 77 KriptoAgi.gateway.app[0] endToEndDelay:vector ETV
attr interpolationmode none
attr recordingmode vector
attr source dataAge(packetReceived)
attr title "end-to-end delay"
attr unit s
vector 78 KriptoAgi.gateway.app[0] rcvdPkSeqNo:vector ETV
attr interpolationmode none
attr recordingmode vector
attr source appPkSeqNo(packetReceived)
attr title "received packet sequence number"
vector 79 KriptoAgi.sensor.app[0] throughput:vector ETV
attr recordingmode vector
attr source throughput(packetReceived)
attr title throughput
attr unit bps
0	0	0	0
0	0	0	0
0	11	1	1
0	15	1.00005	0
0	48	1.000805334256	1
0	83	1.001754002768	0
0	85	1.002224002768	1
0	105	1.002367337024	0
0	123	2	1
0	158	2.000948668512	0
0	160	2.001458668512	1
0	180	2.001602002768	0
0	195	3	1
0	230	3.000948668512	0
0	232	3.001478668512	1
0	252	3.001622002768	0
0	267	4	1
0	302	4.000948668512	0
0	304	4.001018668512	1
0	324	4.001162002768	0
0	339	5	1
0	374	5.000948668512	0
0	376	5.001458668512	1
0	396	5.001602002768	0
0	411	6	1
0	446	6.000948668512	0
0	448	6.001338668512	1
0	468	6.001482002768	0
0	483	7	1
0	518	7.000948668512	0
0	520	7.001258668512	1
0	540	7.001402002768	0
0	555	8	1
0	590	8.000948668512	0
0	592	8.001398668512	1
0	612	8.001542002768	0
0	627	9	1
0	662	9.000948668512	0
0	664	9.001378668512	1
0	684	9.001522002768	0
0	699	10	1
0	734	10.000948668512	0
0	736	10.001298668512	1
0	756	10.001442002768	0
0	771	11	1
0	806	11.000948668512	0
0	808	11.001358668512	1
0	828	11.001502002768	0
0	843	12	1
0	878	12.000948668512	0
0	880	12.001338668512	1
0	900	12.001482002768	0
0	915	13	1
0	950	13.000948668512	0
0	952	13.001378668512	1
0	972	13.001522002768	0
0	987	14	1
0	1022	14.000948668512	0
0	1024	14.001138668512	1
0	1044	14.001282002768	0
0	1059	15	1
0	1094	15.000948668512	0
0	1096	15.001178668512	1
0	1116	15.001322002768	0
0	1131	16	1
0	1166	16.000948668512	0
0	1168	16.000998668512	1
0	1188	16.001142002768	0
0	1203	17	1
0	1238	17.000948668512	0
0	1240	17.001398668512	1
0	1260	17.001542002768	0
0	1275	18	1
0	1310	18.000948668512	0
0	1312	18.001598668512	1
0	1332	18.001742002768	0
0	1347	19	1
0	1382	19.000948668512	0
0	1384	19.001458668512	1
0	1404	19.001602002768	0
0	1419	20	1
0	1454	20.000948668512	0
0	1456	20.000998668512	1
0	1476	20.001142002768	0
0	1491	21	1
0	1526	21.000948668512	0
0	1528	21.001418668512	1
0	1548	21.001562002768	0
0	1563	22	1
0	1598	22.000948668512	0
0	1600	22.001158668512	1
0	1620	22.001302002768	0
0	1635	23	1
0	1670	23.000948668512	0
0	1672	23.001298668512	1
0	1692	23.001442002768	0
0	1707	24	1
0	1742	24.000948668512	0
0	1744	24.001198668512	1
0	1764	24.001342002768	0
0	1779	25	1
0	1814	25.000948668512	0
0	1816	25.001478668512	1
0	1836	25.001622002768	0
0	1851	26	1
0	1886	26.000948668512	0
0	1888	26.001138668512	1
0	1908	26.001282002768	0
0	1923	27	1
0	1958	27.000948668512	0
0	1960	27.001058668512	1
0	1980	27.001202002768	0
0	1995	28	1
0	2030	28.000948668512	0
0	2032	28.001218668512	1
0	2052	28.001362002768	0
0	2067	29	1
0	2102	29.000948668512	0
0	2104	29.001538668512	1
0	2124	29.001682002768	0
0	2139	30	1
0	2174	30.000948668512	0
0	2176	30.001058668512	1
0	2196	30.001202002768	0
0	2211	31	1
0	2246	31.000948668512	0
0	2248	31.001498668512	1
0	2268	31.001642002768	0
0	2283	32	1
0	2318	32.000948668512	0
0	2320	32.001218668512	1
0	2340	32.001362002768	0
0	2355	33	1
0	2390	33.000948668512	0
0	2392	33.001078668512	1
0	2412	33.001222002768	0
0	2427	34	1
0	2462	34.000948668512	0
0	2464	34.001398668512	1
0	2484	34.001542002768	0
0	2499	35	1
0	2534	35.000948668512	0
0	2536	35.001078668512	1
0	2556	35.001222002768	0
0	2571	36	1
0	2606	36.000948668512	0
0	2608	36.001278668512	1
0	2628	36.001422002768	0
0	2643	37	1
0	2678	37.000948668512	0
0	2680	37.001058668512	1
0	2700	37.001202002768	0
0	2715	38	1
0	2750	38.000948668512	0
0	2752	38.001298668512	1
0	2772	38.001442002768	0
0	2787	39	1
0	2822	39.000948668512	0
0	2824	39.001418668512	1
0	2844	39.001562002768	0
0	2859	40	1
0	2894	40.000948668512	0
0	2896	40.001098668512	1
0	2916	40.001242002768	0
0	2931	41	1
0	2966	41.000948668512	0
0	2968	41.000998668512	1
0	2988	41.001142002768	0
0	3003	42	1
0	3038	42.000948668512	0
0	3040	42.001598668512	1
0	3060	42.001742002768	0
0	3075	43	1
0	3110	43.000948668512	0
0	3112	43.001358668512	1
0	3132	43.001502002768	0
0	3147	44	1
0	3182	44.000948668512	0
0	3184	44.001318668512	1
0	3204	44.001462002768	0
0	3219	45	1
0	3254	45.000948668512	0
0	3256	45.001038668512	1
0	3276	45.001182002768	0
0	3291	46	1
0	3326	46.000948668512	0
0	3328	46.001318668512	1
0	3348	46.001462002768	0
0	3363	47	1
0	3398	47.000948668512	0
0	3400	47.001178668512	1
0	3420	47.001322002768	0
0	3435	48	1
0	3470	48.000948668512	0
0	3472	48.001198668512	1
0	3492	48.001342002768	0
0	3507	49	1
0	3542	49.000948668512	0
0	3544	49.001518668512	1
0	3564	49.001662002768	0
0	3579	50	1
0	3614	50.000948668512	0
0	3616	50.001538668512	1
0	3636	50.001682002768	0
0	3651	51	1
0	3686	51.000948668512	0
0	3688	51.001038668512	1
0	3708	51.001182002768	0
0	3723	52	1
0	3758	52.000948668512	0
0	3760	52.001598668512	1
0	3780	52.001742002768	0
0	3795	53	1
0	3830	53.000948668512	0
0	3832	53.001358668512	1
0	3852	53.001502002768	0
0	3867	54	1
0	3902	54.000948668512	0
0	3904	54.001398668512	1
0	3924	54.001542002768	0
0	3939	55	1
0	3974	55.000948668512	0
0	3976	55.001538668512	1
0	3996	55.001682002768	0
0	4011	56	1
0	4046	56.000948668512	0
0	4048	56.001518668512	1
0	4068	56.001662002768	0
0	4083	57	1
0	4118	57.000948668512	0
0	4120	57.001198668512	1
0	4140	57.001342002768	0
0	4155	58	1
0	4190	58.000948668512	0
0	4192	58.001158668512	1
0	4212	58.001302002768	0
0	4227	59	1
0	4262	59.000948668512	0
0	4264	59.001378668512	1
0	4284	59.001522002768	0
0	4299	60	1
0	4334	60.000948668512	0
0	4336	60.001438668512	1
0	4356	60.001582002768	0
0	4371	61	1
0	4406	61.000948668512	0
0	4408	61.001378668512	1
0	4428	61.001522002768	0
0	4443	62	1
0	4478	62.000948668512	0
0	4480	62.001378668512	1
0	4500	62.001522002768	0
0	4515	63	1
0	4550	63.000948668512	0
0	4552	63.001158668512	1
0	4572	63.001302002768	0
0	4587	64	1
0	4622	64.000948668512	0
0	4624	64.001478668512	1
0	4644	64.001622002768	0
0	4659	65	1
0	4694	65.000948668512	0
0	4696	65.001058668512	1
0	4716	65.001202002768	0
0	4731	66	1
0	4766	66.000948668512	0
0	4768	66.001218668512	1
0	4788	66.001362002768	0
0	4803	67	1
0	4838	67.000948668512	0
0	4840	67.001158668512	1
0	4860	67.001302002768	0
0	4875	68	1
0	4910	68.000948668512	0
0	4912	68.001618668512	1
0	4932	68.001762002768	0
0	4947	69	1
0	4982	69.000948668512	0
0	4984	69.001038668512	1
0	5004	69.001182002768	0
0	5019	70	1
0	5054	70.000948668512	0
0	5056	70.001058668512	1
0	5076	70.001202002768	0
0	5091	71	1
0	5126	71.000948668512	0
0	5128	71.001278668512	1
0	5148	71.001422002768	0
0	5163	72	1
0	5198	72.000948668512	0
0	5200	72.001058668512	1
0	5220	72.001202002768	0
0	5235	73	1
0	5270	73.000948668512	0
0	5272	73.001558668512	1
0	5292	73.001702002768	0
0	5307	74	1
0	5342	74.000948668512	0
0	5344	74.001498668512	1
0	5364	74.001642002768	0
0	5379	75	1
0	5414	75.000948668512	0
0	5416	75.001478668512	1
0	5436	75.001622002768	0
0	5451	76	1
0	5486	76.000948668512	0
0	5488	76.001578668512	1
0	5508	76.001722002768	0
0	5523	77	1
0	5558	77.000948668512	0
0	5560	77.001498668512	1
0	5580	77.001642002768	0
0	5595	78	1
0	5630	78.000948668512	0
0	5632	78.001498668512	1
0	5652	78.001642002768	0
0	5667	79	1
0	5702	79.000948668512	0
0	5704	79.001578668512	1
0	5724	79.001722002768	0
0	5739	80	1
0	5774	80.000948668512	0
0	5776	80.001158668512	1
0	5796	80.001302002768	0
0	5811	81	1
0	5846	81.000948668512	0
0	5848	81.001538668512	1
0	5868	81.001682002768	0
0	5883	82	1
0	5918	82.000948668512	0
0	5920	82.001118668512	1
0	5940	82.001262002768	0
0	5955	83	1
0	5990	83.000948668512	0
0	5992	83.001258668512	1
0	6012	83.001402002768	0
0	6027	84	1
0	6062	84.000948668512	0
0	6064	84.001478668512	1
0	6084	84.001622002768	0
0	6099	85	1
0	6134	85.000948668512	0
0	6136	85.001358668512	1
0	6156	85.001502002768	0
0	6171	86	1
0	6206	86.000948668512	0
0	6208	86.001298668512	1
0	6228	86.001442002768	0
0	6243	87	1
0	6278	87.000948668512	0
0	6280	87.001298668512	1
0	6300	87.001442002768	0
0	6315	88	1
0	6350	88.000948668512	0
0	6352	88.001018668512	1
0	6372	88.001162002768	0
0	6387	89	1
0	6422	89.000948668512	0
0	6424	89.001238668512	1
0	6444	89.001382002768	0
0	6459	90	1
0	6494	90.000948668512	0
0	6496	90.001478668512	1
0	6516	90.001622002768	0
0	6531	91	1
0	6566	91.000948668512	0
0	6568	91.001298668512	1
0	6588	91.001442002768	0
0	6603	92	1
0	6638	92.000948668512	0
0	6640	92.001238668512	1
0	6660	92.001382002768	0
0	6675	93	1
0	6710	93.000948668512	0
0	6712	93.001438668512	1
0	6732	93.001582002768	0
0	6747	94	1
0	6782	94.000948668512	0
0	6784	94.001098668512	1
0	6804	94.001242002768	0
0	6819	95	1
0	6854	95.000948668512	0
0	6856	95.000998668512	1
0	6876	95.001142002768	0
0	6891	96	1
0	6926	96.000948668512	0
0	6928	96.001398668512	1
0	6948	96.001542002768	0
0	6963	97	1
0	6998	97.000948668512	0
0	7000	97.001218668512	1
0	7020	97.001362002768	0
0	7035	98	1
0	7070	98.000948668512	0
0	7072	98.001558668512	1
0	7092	98.001702002768	0
0	7107	99	1
0	7142	99.000948668512	0
0	7144	99.001038668512	1
0	7164	99.001182002768	0
0	7179	100	1
1	0	0	0
1	0	0	0
1	0	0	0
1	0	0	0
1	0	0	0
1	9	1	1
1	11	1	0
1	36	1.000331334256	1
1	37	1.000331334256	2
1	48	1.000805334256	1
1	63	1.001380668512	0
1	120	2	1
1	121	2	2
1	123	2	1
1	138	2.000575334256	0
1	192	3	1
1	193	3	2
1	195	3	1
1	210	3.000575334256	0
1	264	4	1
1	265	4	2
1	267	4	1
1	282	4.000575334256	0
1	336	5	1
1	337	5	2
1	339	5	1
1	354	5.000575334256	0
1	408	6	1
1	409	6	2
1	411	6	1
1	426	6.000575334256	0
1	480	7	1
1	481	7	2
1	483	7	1
1	498	7.000575334256	0
1	552	8	1
1	553	8	2
1	555	8	1
1	570	8.000575334256	0
1	624	9	1
1	625	9	2
1	627	9	1
1	642	9.000575334256	0
1	696	10	1
1	697	10	2
1	699	10	1
1	714	10.000575334256	0
1	768	11	1
1	769	11	2
1	771	11	1
1	786	11.000575334256	0
1	840	12	1
1	841	12	2
1	843	12	1
1	858	12.000575334256	0
1	912	13	1
1	913	13	2
1	915	13	1
1	930	13.000575334256	0
1	984	14	1
1	985	14	2
1	987	14	1
1	1002	14.000575334256	0
1	1056	15	1
1	1057	15	2
1	1059	15	1
1	1074	15.000575334256	0
1	1128	16	1
1	1129	16	2
1	1131	16	1
1	1146	16.000575334256	0
1	1200	17	1
1	1201	17	2
1	1203	17	1
1	1218	17.000575334256	0
1	1272	18	1
1	1273	18	2
1	1275	18	1
1	1290	18.000575334256	0
1	1344	19	1
1	1345	19	2
1	1347	19	1
1	1362	19.000575334256	0
1	1416	20	1
1	1417	20	2
1	1419	20	1
1	1434	20.000575334256	0
1	1488	21	1
1	1489	21	2
1	1491	21	1
1	1506	21.000575334256	0
1	1560	22	1
1	1561	22	2
1	1563	22	1
1	1578	22.000575334256	0
1	1632	23	1
1	1633	23	2
1	1635	23	1
1	1650	23.000575334256	0
1	1704	24	1
1	1705	24	2
1	1707	24	1
1	1722	24.000575334256	0
1	1776	25	1
1	1777	25	2
1	1779	25	1
1	1794	25.000575334256	0
1	1848	26	1
1	1849	26	2
1	1851	26	1
1	1866	26.000575334256	0
1	1920	27	1
1	1921	27	2
1	1923	27	1
1	1938	27.000575334256	0
1	1992	28	1
1	1993	28	2
1	1995	28	1
1	2010	28.000575334256	0
1	2064	29	1
1	2065	29	2
1	2067	29	1
1	2082	29.000575334256	0
1	2136	30	1
1	2137	30	2
1	2139	30	1
1	2154	30.000575334256	0
1	2208	31	1
1	2209	31	2
1	2211	31	1