version 3
run PRESENT-0-20260506-22:51:59-25916
attr configname PRESENT
attr datetime 20260506-22:51:59
attr datetimef 20260506-225159
attr experiment PRESENT
attr inifile omnetpp.ini
attr iterationvars ""
attr iterationvarsd ""
attr iterationvarsf ""
attr measurement ""
attr network KriptoAgi
attr processid 25916
attr repetition 0
attr replication #0
attr resultdir results
attr runnumber 0
attr seedset 0
config image-path ../../../../../home/oguzyl1907/omnetpp-6.0.3/samples/inet4.5/images
config description "WPAN - PRESENT"
config *.sensor.app[0].messageLength 108B
config *.sensor.udp.procDelay 0.090ms
config network KriptoAgi
config sim-time-limit 100s
config *.sensor.numApps 1
config *.sensor.app[0].typename UdpBasicApp
config *.sensor.app[0].destAddresses "\"gateway\""
config *.sensor.app[0].destPort 5000
config *.sensor.app[0].sendInterval 1s
config *.gateway.numApps 1
config *.gateway.app[0].typename UdpSink
config *.gateway.app[0].localPort 5000
config *.configurator.typename Ipv4NetworkConfigurator
config **.wlan[*].mgmt.typename Ieee80211MgmtAdhoc
config **.wlan[*].agent.typename ""

vector 0 KriptoAgi.sensor.wlan[0].mac.dcf frameSequenceActive:vector ETV
attr autoWarmupFilter false
attr interpolationmode sample-hold
attr recordingmode vector
attr source warmup(count(frameSequenceStarted)-count(frameSequenceFinished))
attr title "frame sequence active"
vector 1 KriptoAgi.sensor.wlan[0].mac.dcf.channelAccess.pendingQueue queueLength:vector ETV
attr autoWarmupFilter false
attr interpolationmode sample-hold
attr recordingmode vector
attr source "warmup(atomic(constant0(packetPushEnded) + count(packetPushStarted) - count(packetPulled) - count(packetRemoved) - count(packetDropped)))"
attr title "queue length"
attr unit pk
vector 2 KriptoAgi.sensor.wlan[0].mac.dcf.channelAccess.pendingQueue queueBitLength:vector ETV
attr autoWarmupFilter false
attr interpolationmode sample-hold
attr recordingmode vector
attr source "warmup(atomic(constant0(packetPushEnded) + sum(packetLength(packetPushStarted)) - sum(packetLength(packetPulled)) - sum(packetLength(packetRemoved)) - sum(packetLength(packetDropped))))"
attr title "queue bit length"
attr unit b
vector 3 KriptoAgi.sensor.wlan[0].mac.dcf.channelAccess.inProgressFrames queueLength:vector ETV
attr autoWarmupFilter false
attr interpolationmode sample-hold
attr recordingmode vector
attr source "warmup(count(packetEnqueued) - count(packetDequeued))"
attr title "queue length"
vector 4 KriptoAgi.sensor.wlan[0].mac.dcf.channelAccess.contention backoffActive:vector ETV
attr autoWarmupFilter false
attr interpolationmode sample-hold
attr recordingmode vector
attr source warmup(count(backoffStarted)-count(backoffStopped))
attr title "backoff active"
vector 5 KriptoAgi.sensor.udp passedUpPk:vector(count) ETV
attr interpolationmode none
attr recordingmode vector(count)
attr source packetSentToUpper
attr title "packets passed up, count"
vector 6 KriptoAgi.sensor.udp droppedPkWrongPort:vector(count) ETV
attr interpolationmode none
attr recordingmode vector(count)
attr source packetDropReasonIsNoPortFound(packetDropped)
attr title "packets dropped (wrong port), count"
vector 7 KriptoAgi.sensor.udp droppedPkBadChecksum:vector(count) ETV
attr interpolationmode none
attr recordingmode vector(count)
attr source packetDropReasonIsIncorrectlyReceived(packetDropped)
attr title "packets dropped (checksum error), count"
vector 8 KriptoAgi.gateway.wlan[0].mac.dcf frameSequenceActive:vector ETV
attr autoWarmupFilter false
attr interpolationmode sample-hold
attr recordingmode vector
attr source warmup(count(frameSequenceStarted)-count(frameSequenceFinished))
attr title "frame sequence active"
vector 9 KriptoAgi.gateway.wlan[0].mac.dcf.channelAccess.pendingQueue queueLength:vector ETV
attr autoWarmupFilter false
attr interpolationmode sample-hold
attr recordingmode vector
attr source "warmup(atomic(constant0(packetPushEnded) + count(packetPushStarted) - count(packetPulled) - count(packetRemoved) - count(packetDropped)))"
attr title "queue length"
attr unit pk
vector 10 KriptoAgi.gateway.wlan[0].mac.dcf.channelAccess.pendingQueue queueBitLength:vector ETV
attr autoWarmupFilter false
attr interpolationmode sample-hold
attr recordingmode vector
attr source "warmup(atomic(constant0(packetPushEnded) + sum(packetLength(packetPushStarted)) - sum(packetLength(packetPulled)) - sum(packetLength(packetRemoved)) - sum(packetLength(packetDropped))))"
attr title "queue bit length"
attr unit b
vector 11 KriptoAgi.gateway.wlan[0].mac.dcf.channelAccess.inProgressFrames queueLength:vector ETV
attr autoWarmupFilter false
attr interpolationmode sample-hold
attr recordingmode vector
attr source "warmup(count(packetEnqueued) - count(packetDequeued))"
attr title "queue length"
vector 12 KriptoAgi.gateway.wlan[0].mac.dcf.channelAccess.contention backoffActive:vector ETV
attr autoWarmupFilter false
attr interpolationmode sample-hold
attr recordingmode vector
attr source warmup(count(backoffStarted)-count(backoffStopped))
attr title "backoff active"
vector 13 KriptoAgi.gateway.udp passedUpPk:vector(count) ETV
attr interpolationmode none
attr recordingmode vector(count)
attr source packetSentToUpper
attr title "packets passed up, count"
vector 14 KriptoAgi.gateway.udp droppedPkWrongPort:vector(count) ETV
attr interpolationmode none
attr recordingmode vector(count)
attr source packetDropReasonIsNoPortFound(packetDropped)
attr title "packets dropped (wrong port), count"
vector 15 KriptoAgi.gateway.udp droppedPkBadChecksum:vector(count) ETV
attr interpolationmode none
attr recordingmode vector(count)
attr source packetDropReasonIsIncorrectlyReceived(packetDropped)
attr title "packets dropped (checksum error), count"
vector 16 KriptoAgi.sensor.wlan[0].radio radioMode:vector ETV
attr interpolationmode sample-hold
attr recordingmode vector
attr source radioModeChanged
attr title "Radio mode"
vector 17 KriptoAgi.sensor.wlan[0].radio radioChannel:vector ETV
attr interpolationmode sample-hold
attr recordingmode vector
attr source radioChannelChanged
attr title "Radio channel"
vector 18 KriptoAgi.gateway.wlan[0].radio radioMode:vector ETV
attr interpolationmode sample-hold
attr recordingmode vector
attr source radioModeChanged
attr title "Radio mode"
vector 19 KriptoAgi.gateway.wlan[0].radio radioChannel:vector ETV
attr interpolationmode sample-hold
attr recordingmode vector
attr source radioChannelChanged
attr title "Radio channel"
vector 20 KriptoAgi.sensor.wlan[0].radio receptionState:vector ETV
attr interpolationmode sample-hold
attr recordingmode vector
attr source receptionStateChanged
attr title "Radio reception state"
vector 21 KriptoAgi.sensor.wlan[0].mac.dcf.channelAccess.contention stateChanged:vector ETV
attr enum IDLE,DEFER,IFS_AND_BACKOFF
attr interpolationmode none
attr recordingmode vector
attr title "contention state changed"
attr type enum
vector 22 KriptoAgi.gateway.wlan[0].radio receptionState:vector ETV
attr interpolationmode sample-hold
attr recordingmode vector
attr source receptionStateChanged
attr title "Radio reception state"
vector 23 KriptoAgi.gateway.wlan[0].mac.dcf.channelAccess.contention stateChanged:vector ETV
attr enum IDLE,DEFER,IFS_AND_BACKOFF
attr interpolationmode none
attr recordingmode vector
attr title "contention state changed"
attr type enum
vector 24 KriptoAgi.sensor.wlan[0].mac.dcf.recoveryProcedure contentionWindowChanged:vector ETV
attr interpolationmode sample-hold
attr recordingmode vector
attr title "contention window"
vector 25 KriptoAgi.gateway.wlan[0].mac.dcf.recoveryProcedure contentionWindowChanged:vector ETV
attr interpolationmode sample-hold
attr recordingmode vector
attr title "contention window"
vector 26 KriptoAgi.sensor.app[0] packetSent:vector(packetBytes) ETV
attr interpolationmode none
attr recordingmode vector(packetBytes)
attr source packetSent
attr title "packets sent, packetBytes"
vector 27 KriptoAgi.sensor.udp packetSent:vector(packetBytes) ETV
attr interpolationmode none
attr recordingmode vector(packetBytes)
attr source packetSent
attr title "packets sent, packetBytes"
vector 28 KriptoAgi.sensor.ipv4.arp arpRequestSent:vector(packetBytes) ETV
attr recordingmode vector(packetBytes)
attr source arpRequestSent
attr title "ARP request sent, packetBytes"
vector 29 KriptoAgi.sensor.wlan[0].mac packetReceivedFromUpper:vector(packetBytes) ETV
attr interpolationmode none
attr recordingmode vector(packetBytes)
attr title "packets received from upper layer, packetBytes"
vector 30 KriptoAgi.sensor.wlan[0].mac.dcf.channelAccess.pendingQueue incomingPacketLengths:vector ETV
attr interpolationmode none
attr recordingmode vector
attr source packetLength(packetPushStarted)
attr title "incoming packet lengths"
attr unit b
vector 31 KriptoAgi.sensor.wlan[0].mac.dcf.channelAccess.contention backoffPeriodGenerated:vector ETV
attr interpolationmode none
attr recordingmode vector
attr title "backoff periods"
vector 32 KriptoAgi.sensor.wlan[0].mac.dcf.channelAccess.pendingQueue queueingTime:vector ETV
attr interpolationmode none
attr recordingmode vector
attr source queueingTime(packetPulled)
attr title "queueing times"
attr unit s
vector 33 KriptoAgi.sensor.wlan[0].mac.dcf.channelAccess.pendingQueue outgoingPacketLengths:vector ETV
attr interpolationmode none
attr recordingmode vector
attr source packetLength(packetPulled)
attr title "outgoing packet lengths"
attr unit b
vector 34 KriptoAgi.sensor.wlan[0].mac.dcf datarateSelected:vector ETV
attr interpolationmode none
attr recordingmode vector
attr title "datarates selected"
vector 35 KriptoAgi.sensor.wlan[0].mac packetSentToLower:vector(packetBytes) ETV
attr interpolationmode none
attr recordingmode vector(packetBytes)
attr title "packets sent to lower layer, packetBytes"
vector 36 KriptoAgi.sensor.wlan[0].radio transmissionState:vector ETV
attr interpolationmode sample-hold
attr recordingmode vector
attr source transmissionStateChanged
attr title "Radio transmission state"
vector 37 KriptoAgi.sensor.wlan[0].mac.dcf packetSentToPeer:vector(packetBytes) ETV
attr interpolationmode none
attr recordingmode vector(packetBytes)
attr title "packets sent, packetBytes"
vector 38 KriptoAgi.sensor.wlan[0].mac.dcf packetSentToPeerMulticast:vector(packetBytes) ETV
attr interpolationmode none
attr recordingmode vector(packetBytes)
attr source ieee80211Multicast(packetSentToPeer)
attr title "packets sent: multicast, packetBytes"
vector 39 KriptoAgi.sensor.wlan[0].mac.dcf packetSentToPeerBroadcast:vector(packetBytes) ETV
attr interpolationmode none
attr recordingmode vector(packetBytes)
attr source ieee80211Broadcast(packetSentToPeer)
attr title "packets sent: broadcast , packetBytes"
vector 40 KriptoAgi.sensor.wlan[0].mac.dcf packetSentToPeerWithoutRetry:vector(packetBytes) ETV
attr interpolationmode none
attr recordingmode vector(packetBytes)
attr source ieee80211NotRetry(packetSentToPeer)
attr title "packets sent: without retry, packetBytes"
vector 41 KriptoAgi.sensor.wlan[0].mac.dcf.channelAccess.inProgressFrames queueingTime:vector ETV
attr interpolationmode none
attr recordingmode vector
attr source queueingTime(packetDequeued)
attr title "queueing times"
vector 42 KriptoAgi.gateway.wlan[0].mac packetReceivedFromLower:vector(packetBytes) ETV
attr interpolationmode none
attr recordingmode vector(packetBytes)
attr title "packets received from lower layer, packetBytes"
vector 43 KriptoAgi.gateway.wlan[0].mac.dcf packetReceivedFromPeer:vector(packetBytes) ETV
attr interpolationmode none
attr recordingmode vector(packetBytes)
attr title "packets received, packetBytes"
vector 44 KriptoAgi.gateway.wlan[0].mac.dcf packetReceivedFromPeerMulticast:vector(packetBytes) ETV
attr interpolationmode none
attr recordingmode vector(packetBytes)
attr source ieee80211Multicast(packetReceivedFromPeer)
attr title "packets received: multicast, packetBytes"
vector 45 KriptoAgi.gateway.wlan[0].mac.dcf packetReceivedFromPeerBroadcast:vector(packetBytes) ETV
attr interpolationmode none
attr recordingmode vector(packetBytes)
attr source ieee80211Broadcast(packetReceivedFromPeer)
attr title "packets received: broadcast, packetBytes"
vector 46 KriptoAgi.gateway.wlan[0].mac.dcf packetReceivedFromPeerWithoutRetry:vector(packetBytes) ETV
attr interpolationmode none
attr recordingmode vector(packetBytes)
attr source ieee80211NotRetry(packetReceivedFromPeer)
attr title "packets received: without retry, packetBytes"
vector 47 KriptoAgi.gateway.wlan[0].mac packetSentToUpper:vector(packetBytes) ETV
attr interpolationmode none
attr recordingmode vector(packetBytes)
attr title "packets sent to upper layer, packetBytes"
vector 48 KriptoAgi.gateway.ipv4.arp arpReplySent:vector(packetBytes) ETV
attr recordingmode vector(packetBytes)
attr source arpReplySent
attr title "ARP replies sent, packetBytes"
vector 49 KriptoAgi.gateway.wlan[0].mac packetReceivedFromUpper:vector(packetBytes) ETV
attr interpolationmode none
attr recordingmode vector(packetBytes)
attr title "packets received from upper layer, packetBytes"
vector 50 KriptoAgi.gateway.wlan[0].mac.dcf.channelAccess.pendingQueue incomingPacketLengths:vector ETV
attr interpolationmode none
attr recordingmode vector
attr source packetLength(packetPushStarted)
attr title "incoming packet lengths"
attr unit b
vector 51 KriptoAgi.gateway.wlan[0].mac.dcf.channelAccess.contention backoffPeriodGenerated:vector ETV
attr interpolationmode none
attr recordingmode vector
attr title "backoff periods"
vector 52 KriptoAgi.gateway.wlan[0].mac.dcf.channelAccess.pendingQueue queueingTime:vector ETV
attr interpolationmode none
attr recordingmode vector
attr source queueingTime(packetPulled)
attr title "queueing times"
attr unit s
vector 53 KriptoAgi.gateway.wlan[0].mac.dcf.channelAccess.pendingQueue outgoingPacketLengths:vector ETV
attr interpolationmode none
attr recordingmode vector
attr source packetLength(packetPulled)
attr title "outgoing packet lengths"
attr unit b
vector 54 KriptoAgi.gateway.wlan[0].mac.dcf datarateSelected:vector ETV
attr interpolationmode none
attr recordingmode vector
attr title "datarates selected"
vector 55 KriptoAgi.gateway.wlan[0].mac packetSentToLower:vector(packetBytes) ETV
attr interpolationmode none
attr recordingmode vector(packetBytes)
attr title "packets sent to lower layer, packetBytes"
vector 56 KriptoAgi.gateway.wlan[0].radio transmissionState:vector ETV
attr interpolationmode sample-hold
attr recordingmode vector
attr source transmissionStateChanged
attr title "Radio transmission state"
vector 57 KriptoAgi.gateway.wlan[0].mac.dcf packetSentToPeer:vector(packetBytes) ETV
attr interpolationmode none
attr recordingmode vector(packetBytes)
attr title "packets sent, packetBytes"
vector 58 KriptoAgi.gateway.wlan[0].mac.dcf packetSentToPeerUnicast:vector(packetBytes) ETV
attr interpolationmode none
attr recordingmode vector(packetBytes)
attr source ieee80211Unicast(packetSentToPeer)
attr title "packets sent: unicast, packetBytes"
vector 59 KriptoAgi.gateway.wlan[0].mac.dcf packetSentToPeerWithoutRetry:vector(packetBytes) ETV
attr interpolationmode none
attr recordingmode vector(packetBytes)
attr source ieee80211NotRetry(packetSentToPeer)
attr title "packets sent: without retry, packetBytes"
vector 60 KriptoAgi.gateway.wlan[0].mac.rx nav:vector ETV
attr interpolationmode linear
attr recordingmode vector
attr source navChanged
attr title "network allocation vector"
vector 61 KriptoAgi.sensor.wlan[0].mac packetReceivedFromLower:vector(packetBytes) ETV
attr interpolationmode none
attr recordingmode vector(packetBytes)
attr title "packets received from lower layer, packetBytes"
vector 62 KriptoAgi.sensor.wlan[0].mac.dcf packetReceivedFromPeer:vector(packetBytes) ETV
attr interpolationmode none
attr recordingmode vector(packetBytes)
attr title "packets received, packetBytes"
vector 63 KriptoAgi.sensor.wlan[0].mac.dcf packetReceivedFromPeerUnicast:vector(packetBytes) ETV
attr interpolationmode none
attr recordingmode vector(packetBytes)
attr source ieee80211Unicast(packetReceivedFromPeer)
attr title "packets received: unicast, packetBytes"
vector 64 KriptoAgi.sensor.wlan[0].mac.dcf packetReceivedFromPeerWithoutRetry:vector(packetBytes) ETV
attr interpolationmode none
attr recordingmode vector(packetBytes)
attr source ieee80211NotRetry(packetReceivedFromPeer)
attr title "packets received: without retry, packetBytes"
vector 65 KriptoAgi.sensor.wlan[0].mac packetSentToUpper:vector(packetBytes) ETV
attr interpolationmode none
attr recordingmode vector(packetBytes)
attr title "packets sent to upper layer, packetBytes"
vector 66 KriptoAgi.sensor.wlan[0].mac.dcf packetSentToPeerUnicast:vector(packetBytes) ETV
attr interpolationmode none
attr recordingmode vector(packetBytes)
attr source ieee80211Unicast(packetSentToPeer)
attr title "packets sent: unicast, packetBytes"
vector 67 KriptoAgi.gateway.wlan[0].mac.dcf packetReceivedFromPeerUnicast:vector(packetBytes) ETV
attr interpolationmode none
attr recordingmode vector(packetBytes)
attr source ieee80211Unicast(packetReceivedFromPeer)
attr title "packets received: unicast, packetBytes"
vector 68 KriptoAgi.gateway.wlan[0].mac.dcf.channelAccess.inProgressFrames queueingTime:vector ETV
attr interpolationmode none
attr recordingmode vector
attr source queueingTime(packetDequeued)
attr title "queueing times"
vector 69 KriptoAgi.sensor.wlan[0].mac.rx nav:vector ETV
attr interpolationmode linear
attr recordingmode vector
attr source navChanged
attr title "network allocation vector"
vector 70 KriptoAgi.gateway.udp packetReceived:vector(packetBytes) ETV
attr interpolationmode none
attr recordingmode vector(packetBytes)
attr source packetReceived
attr title "packets received, packetBytes"
vector 71 KriptoAgi.gateway.app[0] packetReceived:vector(packetBytes) ETV
attr interpolationmode none
attr recordingmode vector(packetBytes)
attr source packetReceived
attr title "packets received, packetBytes"
vector 72 KriptoAgi.gateway.app[0] endToEndDelay:vector ETV
attr interpolationmode none
attr recordingmode vector
attr source dataAge(packetReceived)
attr title "end-to-end delay"
attr unit s
vector 73 KriptoAgi.gateway.app[0] rcvdPkSeqNo:vector ETV
attr interpolationmode none
attr recordingmode vector
attr source appPkSeqNo(packetReceived)
attr title "received packet sequence number"
vector 74 KriptoAgi.sensor.wlan[0].mac.dcf.channelAccess.pendingQueue incomingDataRate:vector ETV
attr interpolationmode linear
attr recordingmode vector
attr source throughput(packetPushStarted)
attr title "incoming datarate"
attr unit bps
vector 75 KriptoAgi.sensor.wlan[0].mac.dcf.channelAccess.pendingQueue outgoingDataRate:vector ETV
attr interpolationmode linear
attr recordingmode vector
attr source throughput(packetPulled)
attr title "outgoing datarate"
attr unit bps
0	0	0	0
0	0	0	0
0	11	1	1
0	15	1.00005	0
0	46	1.000805334256	1
0	66	1.000936668512	0
0	78	2	1
0	98	2.000131334256	0
0	107	3	1
0	127	3.000131334256	0
0	136	4	1
0	156	4.000131334256	0
0	165	5	1
0	185	5.000131334256	0
0	194	6	1
0	214	6.000131334256	0
0	223	7	1
0	243	7.000131334256	0
0	252	8	1
0	272	8.000131334256	0
0	281	9	1
0	301	9.000131334256	0
0	310	10	1
0	330	10.000131334256	0
0	339	11	1
0	359	11.000131334256	0
0	368	12	1
0	388	12.000131334256	0
0	397	13	1
0	417	13.000131334256	0
0	426	14	1
0	446	14.000131334256	0
0	455	15	1
0	475	15.000131334256	0
0	484	16	1
0	504	16.000131334256	0
0	513	17	1
0	533	17.000131334256	0
0	542	18	1
0	562	18.000131334256	0
0	571	19	1
0	591	19.000131334256	0
0	600	20	1
0	620	20.000131334256	0
0	629	21	1
0	649	21.000131334256	0
0	658	22	1
0	678	22.000131334256	0
0	687	23	1
0	707	23.000131334256	0
0	716	24	1
0	736	24.000131334256	0
0	745	25	1
0	765	25.000131334256	0
0	774	26	1
0	794	26.000131334256	0
0	803	27	1
0	823	27.000131334256	0
0	832	28	1
0	852	28.000131334256	0
0	861	29	1
0	881	29.000131334256	0
0	890	30	1
0	910	30.000131334256	0
0	919	31	1
0	939	31.000131334256	0
0	948	32	1
0	968	32.000131334256	0
0	977	33	1
0	997	33.000131334256	0
0	1006	34	1
0	1026	34.000131334256	0
0	1035	35	1
0	1055	35.000131334256	0
0	1064	36	1
0	1084	36.000131334256	0
0	1093	37	1
0	1113	37.000131334256	0
0	1122	38	1
0	1142	38.000131334256	0
0	1151	39	1
0	1171	39.000131334256	0
0	1180	40	1
0	1200	40.000131334256	0
0	1209	41	1
0	1229	41.000131334256	0
0	1238	42	1
0	1258	42.000131334256	0
0	1267	43	1
0	1287	43.000131334256	0
0	1296	44	1
0	1316	44.000131334256	0
0	1325	45	1
0	1345	45.000131334256	0
0	1354	46	1
0	1374	46.000131334256	0
0	1383	47	1
0	1403	47.000131334256	0
0	1412	48	1
0	1432	48.000131334256	0
0	1441	49	1
0	1461	49.000131334256	0
0	1470	50	1
0	1490	50.000131334256	0
0	1499	51	1
0	1519	51.000131334256	0
0	1528	52	1
0	1548	52.000131334256	0
0	1557	53	1
0	1577	53.000131334256	0
0	1586	54	1
0	1606	54.000131334256	0
0	1615	55	1
0	1635	55.000131334256	0
0	1644	56	1
0	1664	56.000131334256	0
0	1673	57	1
0	1693	57.000131334256	0
0	1702	58	1
0	1722	58.000131334256	0
0	1731	59	1
0	1751	59.000131334256	0
0	1760	60	1
0	1780	60.000131334256	0
0	1789	61	1
0	1809	61.000131334256	0
0	1818	62	1
0	1838	62.000131334256	0
0	1847	63	1
0	1867	63.000131334256	0
0	1876	64	1
0	1896	64.000131334256	0
0	1905	65	1
0	1925	65.000131334256	0
0	1934	66	1
0	1954	66.000131334256	0
0	1963	67	1
0	1983	67.000131334256	0
0	1992	68	1
0	2012	68.000131334256	0
0	2021	69	1
0	2041	69.000131334256	0
0	2050	70	1
0	2070	70.000131334256	0
0	2079	71	1
0	2099	71.000131334256	0
0	2108	72	1
0	2128	72.000131334256	0
0	2137	73	1
0	2157	73.000131334256	0
0	2166	74	1
0	2186	74.000131334256	0
0	2195	75	1
0	2215	75.000131334256	0
0	2224	76	1
0	2244	76.000131334256	0
0	2253	77	1
0	2273	77.000131334256	0
0	2282	78	1
0	2302	78.000131334256	0
0	2311	79	1
0	2331	79.000131334256	0
0	2340	80	1
0	2360	80.000131334256	0
0	2369	81	1
0	2389	81.000131334256	0
0	2398	82	1
0	2418	82.000131334256	0
0	2427	83	1
0	2447	83.000131334256	0
0	2456	84	1
0	2476	84.000131334256	0
0	2485	85	1
0	2505	85.000131334256	0
0	2514	86	1
0	2534	86.000131334256	0
0	2543	87	1
0	2563	87.000131334256	0
0	2572	88	1
0	2592	88.000131334256	0
0	2601	89	1
0	2621	89.000131334256	0
0	2630	90	1
0	2650	90.000131334256	0
0	2659	91	1
0	2679	91.000131334256	0
0	2688	92	1
0	2708	92.000131334256	0
0	2717	93	1
0	2737	93.000131334256	0
0	2746	94	1
0	2766	94.000131334256	0
0	2775	95	1
0	2795	95.000131334256	0
0	2804	96	1
0	2824	96.000131334256	0
0	2833	97	1
0	2853	97.000131334256	0
0	2862	98	1
0	2882	98.000131334256	0
0	2891	99	1
0	2911	99.000131334256	0
0	2920	100	1
1	0	0	0
1	0	0	0
1	0	0	0
1	0	0	0
1	0	0	0
1	9	1	1
1	11	1	0
1	35	1.000331334256	1
1	46	1.000805334256	0
1	76	2	1
1	78	2	0
1	105	3	1
1	107	3	0
1	134	4	1
1	136	4	0
1	163	5	1
1	165	5	0
1	192	6	1
1	194	6	0
1	221	7	1
1	223	7	0
1	250	8	1
1	252	8	0
1	279	9	1
1	281	9	0
1	308	10	1
1	310	10	0
1	337	11	1
1	339	11	0
1	366	12	1
1	368	12	0
1	395	13	1
1	397	13	0
1	424	14	1
1	426	14	0
1	453	15	1
1	455	15	0
1	482	16	1
1	484	16	0
1	511	17	1
1	513	17	0
1	540	18	1
1	542	18	0
1	569	19	1
1	571	19	0
1	598	20	1
1	600	20	0
1	627	21	1
1	629	21	0
1	656	22	1
1	658	22	0
1	685	23	1
1	687	23	0
1	714	24	1
1	716	24	0
1	743	25	1
1	745	25	0
1	772	26	1
1	774	26	0
1	801	27	1
1	803	27	0
1	830	28	1
1	832	28	0
1	859	29	1
1	861	29	0
1	888	30	1
1	890	30	0
1	917	31	1
1	919	31	0
1	946	32	1
1	948	32	0
1	975	33	1
1	977	33	0
1	1004	34	1
1	1006	34	0
1	1033	35	1
1	1035	35	0
1	1062	36	1
1	1064	36	0
1	1091	37	1
1	1093	37	0
1	1120	38	1
1	1122	38	0
1	1149	39	1
1	1151	39	0
1	1178	40	1
1	1180	40	0
1	1207	41	1
1	1209	41	0
1	1236	42	1
1	1238	42	0
1	1265	43	1
1	1267	43	0
1	1294	44	1
1	1296	44	0
1	1323	45	1
1	1325	45	0
1	1352	46	1
1	1354	46	0
1	1381	47	1
1	1383	47	0
1	1410	48	1
1	1412	48	0
1	1439	49	1
1	1441	49	0
1	1468	50	1
1	1470	50	0
1	1497	51	1
1	1499	51	0
1	1526	52	1
1	1528	52	0
1	1555	53	1
1	1557	53	0
1	1584	54	1
1	1586	54	0
1	1613	55	1
1	1615	55	0
1	1642	56	1
1	1644	56	0
1	1671	57	1
1	1673	57	0
1	1700	58	1
1	1702	58	0
1	1729	59	1
1	1731	59	0
1	1758	60	1
1	1760	60	0
1	1787	61	1
1	1789	61	0
1	1816	62	1
1	1818	62	0
1	1845	63	1
1	1847	63	0
1	1874	64	1
1	1876	64	0
1	1903	65	1
1	1905	65	0
1	1932	66	1
1	1934	66	0
1	1961	67	1
1	1963	67	0
1	1990	68	1
1	1992	68	0
1	2019	69	1
1	2021	69	0
1	2048	70	1
1	2050	70	0
1	2077	71	1
1	2079	71	0
1	2106	72	1
1	2108	72	0
1	2135	73	1
1	2137	73	0
1	2164	74	1
1	2166	74	0
1	2193	75	1
1	2195	75	0
1	2222	76	1
1	2224	76	0
1	2251	77	1
1	2253	77	0
1	2280	78	1
1	2282	78	0
1	2309	79	1
1	2311	79	0
1	2338	80	1
1	2340	80	0
1	2367	81	1
1	2369	81	0
1	2396	82	1
1	2398	82	0
1	2425	83	1
1	2427	83	0
1	2454	84	1
1	2456	84	0
1	2483	85	1
1	2485	85	0
1	2512	86	1
1	2514	86	0
1	2541	87	1
1	2543	87	0
1	2570	88	1
1	2572	88	0
1	2599	89	1
1	2601	89	0
1	2628	90	1
1	2630	90	0
1	2657	91	1
1	2659	91	0
1	2686	92	1
1	2688	92	0
1	2715	93	1
1	2717	93	0
1	2744	94	1
1	2746	94	0
1	2773	95	1
1	2775	95	0
1	2802	96	1
1	2804	96	0
1	2831	97	1
1	2833	97	0
1	2860	98	1
1	2862	98	0
1	2889	99	1
1	2891	99	0
1	2918	100	1
1	2920	100	0
2	0	0	0
2	0	0	0
2	0	0	0
2	0	0	0
2	0	0	0
2	9	1	512
2	11	1	0
2	35	1.000331334256	1376
2	46	1.000805334256	0
2	76	2	1376
2	78	2	0
2	105	3	1376
2	107	3	0
2	134	4	1376
2	136	4	0
2	163	5	1376
2	165	5	0
2	192	6	1376
2	194	6	0
2	221	7	1376
2	223	7	0
2	250	8	1376
2	252	8	0
2	279	9	1376
2	281	9	0
2	308	10	1376
2	310	10	0
2	337	11	1376
2	339	11	0
2	366	12	1376
2	368	12	0
2	395	13	1376
2	397	13	0
2	424	14	1376
2	426	14	0
2	453	15	1376
2	455	15	0
2	482	16	1376
2	484	16	0
2	511	17	1376
2	513	17	0
2	540	18	1376
2	542	18	0
2	569	19	1376
2	571	19	0
2	598	20	1376
2	600	20	0
2	627	21	1376
2	629	21	0
2	656	22	1376
2	658	22	0
2	685	23	1376
2	687	23	0
2	714	24	1376
2	716	24	0
2	743	25	1376
2	745	25	0
2	772	26	1376
2	774	26	0
2	801	27	1376
2	803	27	0
2	830	28	1376
2	832	28	0
2	859	29	1376
2	861	29	0
2	888	30	1376
2	890	30	0
2	917	31	1376
2	919	31	0
2	946	32	1376
2	948	32	0
2	975	33	1376
2	977	33	0
2	1004	34	1376
2	1006	34	0
2	1033	35	1376
2	1035	35	0
2	1062	36	1376
2	1064	36	0
2	1091	37	1376
2	1093	37	0
2	1120	38	1376
2	1122	38	0
2	1149	39	1376
2	1151	39	0
2	1178	40	1376
2	1180	40	0
2	1207	41	1376
2	1209	41	0
2	1236	42	1376
2	1238	42	0
2	1265	43	1376
2	1267	43	0
2	1294	44	1376
2	1296	44	0
2	1323	45	1376
2	1325	45	0
2	1352	46	1376
2	1354	46	0
2	1381	47	1376
2	1383	47	0
2	1410	48	1376
2	1412	48	0
2	1439	49	1376
2	1441	49	0
2	1468	50	1376
2	1470	50	0
2	1497	51	1376
2	1499	51	0
2	1526	52	1376
2	1528	52	0
2	1555	53	1376
2	1557	53	0
2	1584	54	1376
2	1586	54	0
2	1613	55	1376
2	1615	55	0
2	1642	56	1376
2	1644	56	0
2	1671	57	1376
2	1673	57	0
2	1700	58	1376
2	1702	58	0
2	1729	59	1376
2	1731	59	0
2	1758	60	1376
2	1760	60	0
2	1787	61	1376
2	1789	61	0
2	1816	62	1376
2	1818	62	0
2	1845	63	1376
2	1847	63	0
2	1874	64	1376
2	1876	64	0
2	1903	65	1376
2	1905	65	0
2	1932	66	1376
2	1934	66	0
2	1961	67	1376
2	1963	67	0
2	1990	68	1376
2	1992	68	0
2	2019	69	1376
2	2021	69	0
2	2048	70	1376
2	2050	70	0
2	2077	71	1376
2	2079	71	0
2	2106	72	1376
2	2108	72	0
2	2135	73	1376
2	2137	73	0
2	2164	74	1376
2	2166	74	0
2	2193	75	1376
2	2195	75	0
2	2222	76	1376
2	2224	76	0
2	2251	77	1376
2	2253	77	0
2	2280	78	1376
2	2282	78	0
2	2309	79	1376
2	2311	79	0
2	2338	80	1376
2	2340	80	0
2	2367	81	1376
2	2369	81	0
2	2396	82	1376
2	2398	82	0
2	2425	83	1376
2	2427	83	0
2	2454	84	1376
2	2456	84	0
2	2483	85	1376
2	2485	85	0
2	2512	86	1376
2	2514	86	0
2	2541	87	1376
2	2543	87	0
2	2570	88	1376
2	2572	88	0
2	2599	89	1376
2	2601	89	0
2	2628	90	1376
2	2630	90	0
2	2657	91	1376
2	2659	91	0
2	2686	92	1376
2	2688	92	0
2	2715	93	1376
2	2717	93	0
2	2744	94	1376
2	2746	94	0
2	2773	95	1376
2	2775	95	0
2	2802	96	1376
2	2804	96	0
2	2831	97	1376
2	2833	97	0
2	2860	98	1376
2	2862	98	0
2	2889	99	1376
2	2891	99	0
2	2918	100	1376
2	2920	100	0
3	0	0	0
3	0	0	0
3	11	1	1
3	15	1.00005	0
3	46	1.000805334256	1
3	66	1.000936668512	0
3	78	2	1
3	98	2.000131334256	0
3	107	3	1
3	127	3.000131334256	0
3	136	4	1
3	156	4.000131334256	0
3	165	5	1
3	185	5.000131334256	0
3	194	6	1
3	214	6.000131334256	0
3	223	7	1
3	243	7.000131334256	0
3	252	8	1
3	272	8.000131334256	0
3	281	9	1
3	301	9.000131334256	0
3	310	10	1
3	330	10.000131334256	0
3	339	11	1
3	359	11.000131334256	0
3	368	12	1
3	388	12.000131334256	0
3	397	13	1
3	417	13.000131334256	0
3	426	14	1
3	446	14.000131334256	0
3	455	15	1
3	475	15.000131334256	0
3	484	16	1
3	504	16.000131334256	0
3	513	17	1
3	533	17.000131334256	0
3	542	18	1
3	562	18.000131334256	0
3	571	19	1
3	591	19.000131334256	0
3	600	20	1
3	620	20.000131334256	0
3	629	21	1
3	649	21.000131334256	0
3	658	22	1
3	678	22.000131334256	0
3	687	23	1
3	707	23.000131334256	0
3	716	24	1
3	736	24.000131334256	0
3	745	25	1
3	765	25.000131334256	0
3	774	26	1
3	794	26.000131334256	0
3	803	27	1
3	823	27.000131334256	0
3	832	28	1
3	852	28.000131334256	0
3	861	29	1
3	881	29.000131334256	0
3	890	30	1
3	910	30.000131334256	0
3	919	31	1
3	939	31.000131334256	0
3	948	32	1
3	968	32.000131334256	0
3	977	33	1
3	997	33.000131334256	0
3	1006	34	1
3	1026	34.000131334256	0
3	1035	35	1
3	1055	35.000131334256	0
3	1064	36	1
3	1084	36.000131334256	0
3	1093	37	1
3	1113	37.000131334256	0
3	1122	38	1
3	1142	38.000131334256	0
3	1151	39	1
3	1171	39.000131334256	0
3	1180	40	1
3	1200	40.000131334256	0
3	1209	41	1
3	1229	41.000131334256	0
3	1238	42	1
3	1258	42.000131334256	0
3	1267	43	1
3	1287	43.000131334256	0
3	1296	44	1
3	1316	44.000131334256	0
3	1325	45	1
3	1345	45.000131334256	0
3	1354	46	1
3	1374	46.000131334256	0
3	1383	47	1
3	1403	47.000131334256	0
3	1412	48	1
3	1432	48.000131334256	0
3	1441	49	1
3	1461	49.000131334256	0
3	1470	50	1
3	1490	50.000131334256	0
3	1499	51	1
3	1519	51.000131334256	0
3	1528	52	1
3	1548	52.000131334256	0
3	1557	53	1
3	1577	53.000131334256	0
3	1586	54	1
3	1606	54.000131334256	0
3	1615	55	1
3	1635	55.000131334256	0
3	1644	56	1
3	1664	56.000131334256	0
3	1673	57	1
3	1693	57.000131334256	0
3	1702	58	1
3	1722	58.000131334256	0
3	1731	59	1
3	1751	59.000131334256	0
3	1760	60	1
3	1780	60.000131334256	0
3	1789	61	1
3	1809	61.000131334256	0
3	1818	62	1
3	1838	62.000131334256	0
3	1847	63	1
3	1867	63.000131334256	0
3	1876	64	1
3	1896	64.000131334256	0
3	1905	65	1
3	1925	65.000131334256	0
3	1934	66	1
3	1954	66.000131334256	0
3	1963	67	1
3	1983	67.000131334256	0
3	1992	68	1
3	2012	68.000131334256	0
3	2021	69	1
3	2041	69.000131334256	0
3	2050	70	1