version 3
run SPECK_LPWAN-0-20260506-22:56:12-26018
attr configname SPECK_LPWAN
attr datetime 20260506-22:56:12
attr datetimef 20260506-225612
attr experiment SPECK_LPWAN
attr inifile omnetpp.ini
attr iterationvars ""
attr iterationvarsd ""
attr iterationvarsf ""
attr measurement ""
attr network KriptoAgi
attr processid 26018
attr repetition 0
attr replication #0
attr resultdir results
attr runnumber 0
attr seedset 0
config image-path ../../../../../home/oguzyl1907/omnetpp-6.0.3/samples/inet4.5/images
config description "LPWAN - SPECK"
config *.sensor.app[0].messageLength 108B
config *.sensor.udp.procDelay 0.080ms
config *.sensor.app[0].sendInterval 2s
config network KriptoAgi
config sim-time-limit 100s
config *.sensor.numApps 1
config *.sensor.app[0].typename UdpBasicApp
config *.sensor.app[0].destAddresses "\"gateway\""
config *.sensor.app[0].destPort 5000
config *.sensor.app[0].sendInterval 1s
config *.gateway.numApps 1
config *.gateway.app[0].typename UdpSink
config *.gateway.app[0].localPort 5000
config *.configurator.typename Ipv4NetworkConfigurator
config **.wlan[*].mgmt.typename Ieee80211MgmtAdhoc
config **.wlan[*].agent.typename ""

vector 0 KriptoAgi.sensor.wlan[0].mac.dcf frameSequenceActive:vector ETV
attr autoWarmupFilter false
attr interpolationmode sample-hold
attr recordingmode vector
attr source warmup(count(frameSequenceStarted)-count(frameSequenceFinished))
attr title "frame sequence active"
vector 1 KriptoAgi.sensor.wlan[0].mac.dcf.channelAccess.pendingQueue queueLength:vector ETV
attr autoWarmupFilter false
attr interpolationmode sample-hold
attr recordingmode vector
attr source "warmup(atomic(constant0(packetPushEnded) + count(packetPushStarted) - count(packetPulled) - count(packetRemoved) - count(packetDropped)))"
attr title "queue length"
attr unit pk
vector 2 KriptoAgi.sensor.wlan[0].mac.dcf.channelAccess.pendingQueue queueBitLength:vector ETV
attr autoWarmupFilter false
attr interpolationmode sample-hold
attr recordingmode vector
attr source "warmup(atomic(constant0(packetPushEnded) + sum(packetLength(packetPushStarted)) - sum(packetLength(packetPulled)) - sum(packetLength(packetRemoved)) - sum(packetLength(packetDropped))))"
attr title "queue bit length"
attr unit b
vector 3 KriptoAgi.sensor.wlan[0].mac.dcf.channelAccess.inProgressFrames queueLength:vector ETV
attr autoWarmupFilter false
attr interpolationmode sample-hold
attr recordingmode vector
attr source "warmup(count(packetEnqueued) - count(packetDequeued))"
attr title "queue length"
vector 4 KriptoAgi.sensor.wlan[0].mac.dcf.channelAccess.contention backoffActive:vector ETV
attr autoWarmupFilter false
attr interpolationmode sample-hold
attr recordingmode vector
attr source warmup(count(backoffStarted)-count(backoffStopped))
attr title "backoff active"
vector 5 KriptoAgi.sensor.udp passedUpPk:vector(count) ETV
attr interpolationmode none
attr recordingmode vector(count)
attr source packetSentToUpper
attr title "packets passed up, count"
vector 6 KriptoAgi.sensor.udp droppedPkWrongPort:vector(count) ETV
attr interpolationmode none
attr recordingmode vector(count)
attr source packetDropReasonIsNoPortFound(packetDropped)
attr title "packets dropped (wrong port), count"
vector 7 KriptoAgi.sensor.udp droppedPkBadChecksum:vector(count) ETV
attr interpolationmode none
attr recordingmode vector(count)
attr source packetDropReasonIsIncorrectlyReceived(packetDropped)
attr title "packets dropped (checksum error), count"
vector 8 KriptoAgi.gateway.wlan[0].mac.dcf frameSequenceActive:vector ETV
attr autoWarmupFilter false
attr interpolationmode sample-hold
attr recordingmode vector
attr source warmup(count(frameSequenceStarted)-count(frameSequenceFinished))
attr title "frame sequence active"
vector 9 KriptoAgi.gateway.wlan[0].mac.dcf.channelAccess.pendingQueue queueLength:vector ETV
attr autoWarmupFilter false
attr interpolationmode sample-hold
attr recordingmode vector
attr source "warmup(atomic(constant0(packetPushEnded) + count(packetPushStarted) - count(packetPulled) - count(packetRemoved) - count(packetDropped)))"
attr title "queue length"
attr unit pk
vector 10 KriptoAgi.gateway.wlan[0].mac.dcf.channelAccess.pendingQueue queueBitLength:vector ETV
attr autoWarmupFilter false
attr interpolationmode sample-hold
attr recordingmode vector
attr source "warmup(atomic(constant0(packetPushEnded) + sum(packetLength(packetPushStarted)) - sum(packetLength(packetPulled)) - sum(packetLength(packetRemoved)) - sum(packetLength(packetDropped))))"
attr title "queue bit length"
attr unit b
vector 11 KriptoAgi.gateway.wlan[0].mac.dcf.channelAccess.inProgressFrames queueLength:vector ETV
attr autoWarmupFilter false
attr interpolationmode sample-hold
attr recordingmode vector
attr source "warmup(count(packetEnqueued) - count(packetDequeued))"
attr title "queue length"
vector 12 KriptoAgi.gateway.wlan[0].mac.dcf.channelAccess.contention backoffActive:vector ETV
attr autoWarmupFilter false
attr interpolationmode sample-hold
attr recordingmode vector
attr source warmup(count(backoffStarted)-count(backoffStopped))
attr title "backoff active"
vector 13 KriptoAgi.gateway.udp passedUpPk:vector(count) ETV
attr interpolationmode none
attr recordingmode vector(count)
attr source packetSentToUpper
attr title "packets passed up, count"
vector 14 KriptoAgi.gateway.udp droppedPkWrongPort:vector(count) ETV
attr interpolationmode none
attr recordingmode vector(count)
attr source packetDropReasonIsNoPortFound(packetDropped)
attr title "packets dropped (wrong port), count"
vector 15 KriptoAgi.gateway.udp droppedPkBadChecksum:vector(count) ETV
attr interpolationmode none
attr recordingmode vector(count)
attr source packetDropReasonIsIncorrectlyReceived(packetDropped)
attr title "packets dropped (checksum error), count"
vector 16 KriptoAgi.sensor.wlan[0].radio radioMode:vector ETV
attr interpolationmode sample-hold
attr recordingmode vector
attr source radioModeChanged
attr title "Radio mode"
vector 17 KriptoAgi.sensor.wlan[0].radio radioChannel:vector ETV
attr interpolationmode sample-hold
attr recordingmode vector
attr source radioChannelChanged
attr title "Radio channel"
vector 18 KriptoAgi.gateway.wlan[0].radio radioMode:vector ETV
attr interpolationmode sample-hold
attr recordingmode vector
attr source radioModeChanged
attr title "Radio mode"
vector 19 KriptoAgi.gateway.wlan[0].radio radioChannel:vector ETV
attr interpolationmode sample-hold
attr recordingmode vector
attr source radioChannelChanged
attr title "Radio channel"
vector 20 KriptoAgi.sensor.wlan[0].radio receptionState:vector ETV
attr interpolationmode sample-hold
attr recordingmode vector
attr source receptionStateChanged
attr title "Radio reception state"
vector 21 KriptoAgi.sensor.wlan[0].mac.dcf.channelAccess.contention stateChanged:vector ETV
attr enum IDLE,DEFER,IFS_AND_BACKOFF
attr interpolationmode none
attr recordingmode vector
attr title "contention state changed"
attr type enum
vector 22 KriptoAgi.gateway.wlan[0].radio receptionState:vector ETV
attr interpolationmode sample-hold
attr recordingmode vector
attr source receptionStateChanged
attr title "Radio reception state"
vector 23 KriptoAgi.gateway.wlan[0].mac.dcf.channelAccess.contention stateChanged:vector ETV
attr enum IDLE,DEFER,IFS_AND_BACKOFF
attr interpolationmode none
attr recordingmode vector
attr title "contention state changed"
attr type enum
vector 24 KriptoAgi.sensor.wlan[0].mac.dcf.recoveryProcedure contentionWindowChanged:vector ETV
attr interpolationmode sample-hold
attr recordingmode vector
attr title "contention window"
vector 25 KriptoAgi.gateway.wlan[0].mac.dcf.recoveryProcedure contentionWindowChanged:vector ETV
attr interpolationmode sample-hold
attr recordingmode vector
attr title "contention window"
vector 26 KriptoAgi.sensor.app[0] packetSent:vector(packetBytes) ETV
attr interpolationmode none
attr recordingmode vector(packetBytes)
attr source packetSent
attr title "packets sent, packetBytes"
vector 27 KriptoAgi.sensor.udp packetSent:vector(packetBytes) ETV
attr interpolationmode none
attr recordingmode vector(packetBytes)
attr source packetSent
attr title "packets sent, packetBytes"
vector 28 KriptoAgi.sensor.ipv4.arp arpRequestSent:vector(packetBytes) ETV
attr recordingmode vector(packetBytes)
attr source arpRequestSent
attr title "ARP request sent, packetBytes"
vector 29 KriptoAgi.sensor.wlan[0].mac packetReceivedFromUpper:vector(packetBytes) ETV
attr interpolationmode none
attr recordingmode vector(packetBytes)
attr title "packets received from upper layer, packetBytes"
vector 30 KriptoAgi.sensor.wlan[0].mac.dcf.channelAccess.pendingQueue incomingPacketLengths:vector ETV
attr interpolationmode none
attr recordingmode vector
attr source packetLength(packetPushStarted)
attr title "incoming packet lengths"
attr unit b
vector 31 KriptoAgi.sensor.wlan[0].mac.dcf.channelAccess.pendingQueue incomingDataRate:vector ETV
attr interpolationmode linear
attr recordingmode vector
attr source throughput(packetPushStarted)
attr title "incoming datarate"
attr unit bps
vector 32 KriptoAgi.sensor.wlan[0].mac.dcf.channelAccess.contention backoffPeriodGenerated:vector ETV
attr interpolationmode none
attr recordingmode vector
attr title "backoff periods"
vector 33 KriptoAgi.sensor.wlan[0].mac.dcf.channelAccess.pendingQueue queueingTime:vector ETV
attr interpolationmode none
attr recordingmode vector
attr source queueingTime(packetPulled)
attr title "queueing times"
attr unit s
vector 34 KriptoAgi.sensor.wlan[0].mac.dcf.channelAccess.pendingQueue outgoingPacketLengths:vector ETV
attr interpolationmode none
attr recordingmode vector
attr source packetLength(packetPulled)
attr title "outgoing packet lengths"
attr unit b
vector 35 KriptoAgi.sensor.wlan[0].mac.dcf.channelAccess.pendingQueue outgoingDataRate:vector ETV
attr interpolationmode linear
attr recordingmode vector
attr source throughput(packetPulled)
attr title "outgoing datarate"
attr unit bps
vector 36 KriptoAgi.sensor.wlan[0].mac.dcf datarateSelected:vector ETV
attr interpolationmode none
attr recordingmode vector
attr title "datarates selected"
vector 37 KriptoAgi.sensor.wlan[0].mac packetSentToLower:vector(packetBytes) ETV
attr interpolationmode none
attr recordingmode vector(packetBytes)
attr title "packets sent to lower layer, packetBytes"
vector 38 KriptoAgi.sensor.wlan[0].radio transmissionState:vector ETV
attr interpolationmode sample-hold
attr recordingmode vector
attr source transmissionStateChanged
attr title "Radio transmission state"
vector 39 KriptoAgi.sensor.wlan[0].mac.dcf packetSentToPeer:vector(packetBytes) ETV
attr interpolationmode none
attr recordingmode vector(packetBytes)
attr title "packets sent, packetBytes"
vector 40 KriptoAgi.sensor.wlan[0].mac.dcf packetSentToPeerMulticast:vector(packetBytes) ETV
attr interpolationmode none
attr recordingmode vector(packetBytes)
attr source ieee80211Multicast(packetSentToPeer)
attr title "packets sent: multicast, packetBytes"
vector 41 KriptoAgi.sensor.wlan[0].mac.dcf packetSentToPeerBroadcast:vector(packetBytes) ETV
attr interpolationmode none
attr recordingmode vector(packetBytes)
attr source ieee80211Broadcast(packetSentToPeer)
attr title "packets sent: broadcast , packetBytes"
vector 42 KriptoAgi.sensor.wlan[0].mac.dcf packetSentToPeerWithoutRetry:vector(packetBytes) ETV
attr interpolationmode none
attr recordingmode vector(packetBytes)
attr source ieee80211NotRetry(packetSentToPeer)
attr title "packets sent: without retry, packetBytes"
vector 43 KriptoAgi.sensor.wlan[0].mac.dcf.channelAccess.inProgressFrames queueingTime:vector ETV
attr interpolationmode none
attr recordingmode vector
attr source queueingTime(packetDequeued)
attr title "queueing times"
vector 44 KriptoAgi.gateway.wlan[0].mac packetReceivedFromLower:vector(packetBytes) ETV
attr interpolationmode none
attr recordingmode vector(packetBytes)
attr title "packets received from lower layer, packetBytes"
vector 45 KriptoAgi.gateway.wlan[0].mac.dcf packetReceivedFromPeer:vector(packetBytes) ETV
attr interpolationmode none
attr recordingmode vector(packetBytes)
attr title "packets received, packetBytes"
vector 46 KriptoAgi.gateway.wlan[0].mac.dcf packetReceivedFromPeerMulticast:vector(packetBytes) ETV
attr interpolationmode none
attr recordingmode vector(packetBytes)
attr source ieee80211Multicast(packetReceivedFromPeer)
attr title "packets received: multicast, packetBytes"
vector 47 KriptoAgi.gateway.wlan[0].mac.dcf packetReceivedFromPeerBroadcast:vector(packetBytes) ETV
attr interpolationmode none
attr recordingmode vector(packetBytes)
attr source ieee80211Broadcast(packetReceivedFromPeer)
attr title "packets received: broadcast, packetBytes"
vector 48 KriptoAgi.gateway.wlan[0].mac.dcf packetReceivedFromPeerWithoutRetry:vector(packetBytes) ETV
attr interpolationmode none
attr recordingmode vector(packetBytes)
attr source ieee80211NotRetry(packetReceivedFromPeer)
attr title "packets received: without retry, packetBytes"
vector 49 KriptoAgi.gateway.wlan[0].mac packetSentToUpper:vector(packetBytes) ETV
attr interpolationmode none
attr recordingmode vector(packetBytes)
attr title "packets sent to upper layer, packetBytes"
vector 50 KriptoAgi.gateway.ipv4.arp arpReplySent:vector(packetBytes) ETV
attr recordingmode vector(packetBytes)
attr source arpReplySent
attr title "ARP replies sent, packetBytes"
vector 51 KriptoAgi.gateway.wlan[0].mac packetReceivedFromUpper:vector(packetBytes) ETV
attr interpolationmode none
attr recordingmode vector(packetBytes)
attr title "packets received from upper layer, packetBytes"
vector 52 KriptoAgi.gateway.wlan[0].mac.dcf.channelAccess.pendingQueue incomingPacketLengths:vector ETV
attr interpolationmode none
attr recordingmode vector
attr source packetLength(packetPushStarted)
attr title "incoming packet lengths"
attr unit b
vector 53 KriptoAgi.gateway.wlan[0].mac.dcf.channelAccess.pendingQueue incomingDataRate:vector ETV
attr interpolationmode linear
attr recordingmode vector
attr source throughput(packetPushStarted)
attr title "incoming datarate"
attr unit bps
vector 54 KriptoAgi.gateway.wlan[0].mac.dcf.channelAccess.contention backoffPeriodGenerated:vector ETV
attr interpolationmode none
attr recordingmode vector
attr title "backoff periods"
vector 55 KriptoAgi.gateway.wlan[0].mac.dcf.channelAccess.pendingQueue queueingTime:vector ETV
attr interpolationmode none
attr recordingmode vector
attr source queueingTime(packetPulled)
attr title "queueing times"
attr unit s
vector 56 KriptoAgi.gateway.wlan[0].mac.dcf.channelAccess.pendingQueue outgoingPacketLengths:vector ETV
attr interpolationmode none
attr recordingmode vector
attr source packetLength(packetPulled)
attr title "outgoing packet lengths"
attr unit b
vector 57 KriptoAgi.gateway.wlan[0].mac.dcf.channelAccess.pendingQueue outgoingDataRate:vector ETV
attr interpolationmode linear
attr recordingmode vector
attr source throughput(packetPulled)
attr title "outgoing datarate"
attr unit bps
vector 58 KriptoAgi.gateway.wlan[0].mac.dcf datarateSelected:vector ETV
attr interpolationmode none
attr recordingmode vector
attr title "datarates selected"
vector 59 KriptoAgi.gateway.wlan[0].mac packetSentToLower:vector(packetBytes) ETV
attr interpolationmode none
attr recordingmode vector(packetBytes)
attr title "packets sent to lower layer, packetBytes"
vector 60 KriptoAgi.gateway.wlan[0].radio transmissionState:vector ETV
attr interpolationmode sample-hold
attr recordingmode vector
attr source transmissionStateChanged
attr title "Radio transmission state"
vector 61 KriptoAgi.gateway.wlan[0].mac.dcf packetSentToPeer:vector(packetBytes) ETV
attr interpolationmode none
attr recordingmode vector(packetBytes)
attr title "packets sent, packetBytes"
vector 62 KriptoAgi.gateway.wlan[0].mac.dcf packetSentToPeerUnicast:vector(packetBytes) ETV
attr interpolationmode none
attr recordingmode vector(packetBytes)
attr source ieee80211Unicast(packetSentToPeer)
attr title "packets sent: unicast, packetBytes"
vector 63 KriptoAgi.gateway.wlan[0].mac.dcf packetSentToPeerWithoutRetry:vector(packetBytes) ETV
attr interpolationmode none
attr recordingmode vector(packetBytes)
attr source ieee80211NotRetry(packetSentToPeer)
attr title "packets sent: without retry, packetBytes"
vector 64 KriptoAgi.gateway.wlan[0].mac.rx nav:vector ETV
attr interpolationmode linear
attr recordingmode vector
attr source navChanged
attr title "network allocation vector"
vector 65 KriptoAgi.sensor.wlan[0].mac packetReceivedFromLower:vector(packetBytes) ETV
attr interpolationmode none
attr recordingmode vector(packetBytes)
attr title "packets received from lower layer, packetBytes"
vector 66 KriptoAgi.sensor.wlan[0].mac.dcf packetReceivedFromPeer:vector(packetBytes) ETV
attr interpolationmode none
attr recordingmode vector(packetBytes)
attr title "packets received, packetBytes"
vector 67 KriptoAgi.sensor.wlan[0].mac.dcf packetReceivedFromPeerUnicast:vector(packetBytes) ETV
attr interpolationmode none
attr recordingmode vector(packetBytes)
attr source ieee80211Unicast(packetReceivedFromPeer)
attr title "packets received: unicast, packetBytes"
vector 68 KriptoAgi.sensor.wlan[0].mac.dcf packetReceivedFromPeerWithoutRetry:vector(packetBytes) ETV
attr interpolationmode none
attr recordingmode vector(packetBytes)
attr source ieee80211NotRetry(packetReceivedFromPeer)
attr title "packets received: without retry, packetBytes"
vector 69 KriptoAgi.sensor.wlan[0].mac packetSentToUpper:vector(packetBytes) ETV
attr interpolationmode none
attr recordingmode vector(packetBytes)
attr title "packets sent to upper layer, packetBytes"
vector 70 KriptoAgi.sensor.wlan[0].mac.dcf packetSentToPeerUnicast:vector(packetBytes) ETV
attr interpolationmode none
attr recordingmode vector(packetBytes)
attr source ieee80211Unicast(packetSentToPeer)
attr title "packets sent: unicast, packetBytes"
vector 71 KriptoAgi.gateway.wlan[0].mac.dcf packetReceivedFromPeerUnicast:vector(packetBytes) ETV
attr interpolationmode none
attr recordingmode vector(packetBytes)
attr source ieee80211Unicast(packetReceivedFromPeer)
attr title "packets received: unicast, packetBytes"
vector 72 KriptoAgi.gateway.wlan[0].mac.dcf.channelAccess.inProgressFrames queueingTime:vector ETV
attr interpolationmode none
attr recordingmode vector
attr source queueingTime(packetDequeued)
attr title "queueing times"
vector 73 KriptoAgi.sensor.wlan[0].mac.rx nav:vector ETV
attr interpolationmode linear
attr recordingmode vector
attr source navChanged
attr title "network allocation vector"
vector 74 KriptoAgi.gateway.udp packetReceived:vector(packetBytes) ETV
attr interpolationmode none
attr recordingmode vector(packetBytes)
attr source packetReceived
attr title "packets received, packetBytes"
vector 75 KriptoAgi.gateway.app[0] packetReceived:vector(packetBytes) ETV
attr interpolationmode none
attr recordingmode vector(packetBytes)
attr source packetReceived
attr title "packets received, packetBytes"
vector 76 KriptoAgi.gateway.app[0] throughput:vector ETV
attr recordingmode vector
attr source throughput(packetReceived)
attr title throughput
attr unit bps
vector 77 KriptoAgi.gateway.app[0] endToEndDelay:vector ETV
attr interpolationmode none
attr recordingmode vector
attr source dataAge(packetReceived)
attr title "end-to-end delay"
attr unit s
vector 78 KriptoAgi.gateway.app[0] rcvdPkSeqNo:vector ETV
attr interpolationmode none
attr recordingmode vector
attr source appPkSeqNo(packetReceived)
attr title "received packet sequence number"
vector 79 KriptoAgi.sensor.app[0] throughput:vector ETV
attr recordingmode vector
attr source throughput(packetReceived)
attr title throughput
attr unit bps
0	0	0	0
0	0	0	0
0	11	2	1
0	15	2.00005	0
0	46	2.000805334256	1
0	66	2.000936668512	0
0	78	4	1
0	98	4.000131334256	0
0	107	6	1
0	127	6.000131334256	0
0	136	8	1
0	156	8.000131334256	0
0	165	10	1
0	185	10.000131334256	0
0	194	12	1
0	214	12.000131334256	0
0	223	14	1
0	243	14.000131334256	0
0	252	16	1
0	272	16.000131334256	0
0	281	18	1
0	301	18.000131334256	0
0	310	20	1
0	330	20.000131334256	0
0	339	22	1
0	359	22.000131334256	0
0	368	24	1
0	388	24.000131334256	0
0	397	26	1
0	417	26.000131334256	0
0	426	28	1
0	446	28.000131334256	0
0	455	30	1
0	475	30.000131334256	0
0	484	32	1
0	504	32.000131334256	0
0	513	34	1
0	533	34.000131334256	0
0	542	36	1
0	562	36.000131334256	0
0	571	38	1
0	591	38.000131334256	0
0	600	40	1
0	620	40.000131334256	0
0	629	42	1
0	649	42.000131334256	0
0	658	44	1
0	678	44.000131334256	0
0	687	46	1
0	707	46.000131334256	0
0	716	48	1
0	736	48.000131334256	0
0	745	50	1
0	765	50.000131334256	0
0	774	52	1
0	794	52.000131334256	0
0	803	54	1
0	823	54.000131334256	0
0	832	56	1
0	852	56.000131334256	0
0	861	58	1
0	881	58.000131334256	0
0	890	60	1
0	910	60.000131334256	0
0	919	62	1
0	939	62.000131334256	0
0	948	64	1
0	968	64.000131334256	0
0	977	66	1
0	997	66.000131334256	0
0	1006	68	1
0	1026	68.000131334256	0
0	1035	70	1
0	1055	70.000131334256	0
0	1064	72	1
0	1084	72.000131334256	0
0	1093	74	1
0	1113	74.000131334256	0
0	1122	76	1
0	1142	76.000131334256	0
0	1151	78	1
0	1171	78.000131334256	0
0	1180	80	1
0	1200	80.000131334256	0
0	1209	82	1
0	1229	82.000131334256	0
0	1238	84	1
0	1258	84.000131334256	0
0	1267	86	1
0	1287	86.000131334256	0
0	1296	88	1
0	1316	88.000131334256	0
0	1325	90	1
0	1345	90.000131334256	0
0	1354	92	1
0	1374	92.000131334256	0
0	1383	94	1
0	1403	94.000131334256	0
0	1412	96	1
0	1432	96.000131334256	0
0	1441	98	1
0	1461	98.000131334256	0
0	1470	100	1
1	0	0	0
1	0	0	0
1	0	0	0
1	0	0	0
1	0	0	0
1	9	2	1
1	11	2	0
1	35	2.000331334256	1
1	46	2.000805334256	0
1	76	4	1
1	78	4	0
1	105	6	1
1	107	6	0
1	134	8	1
1	136	8	0
1	163	10	1
1	165	10	0
1	192	12	1
1	194	12	0
1	221	14	1
1	223	14	0
1	250	16	1
1	252	16	0
1	279	18	1
1	281	18	0
1	308	20	1
1	310	20	0
1	337	22	1
1	339	22	0
1	366	24	1
1	368	24	0
1	395	26	1
1	397	26	0
1	424	28	1
1	426	28	0
1	453	30	1
1	455	30	0
1	482	32	1
1	484	32	0
1	511	34	1
1	513	34	0
1	540	36	1
1	542	36	0
1	569	38	1
1	571	38	0
1	598	40	1
1	600	40	0
1	627	42	1
1	629	42	0
1	656	44	1
1	658	44	0
1	685	46	1
1	687	46	0
1	714	48	1
1	716	48	0
1	743	50	1
1	745	50	0
1	772	52	1
1	774	52	0
1	801	54	1
1	803	54	0
1	830	56	1
1	832	56	0
1	859	58	1
1	861	58	0
1	888	60	1
1	890	60	0
1	917	62	1
1	919	62	0
1	946	64	1
1	948	64	0
1	975	66	1
1	977	66	0
1	1004	68	1
1	1006	68	0
1	1033	70	1
1	1035	70	0
1	1062	72	1
1	1064	72	0
1	1091	74	1
1	1093	74	0
1	1120	76	1
1	1122	76	0
1	1149	78	1
1	1151	78	0
1	1178	80	1
1	1180	80	0
1	1207	82	1
1	1209	82	0
1	1236	84	1
1	1238	84	0
1	1265	86	1
1	1267	86	0
1	1294	88	1
1	1296	88	0
1	1323	90	1
1	1325	90	0
1	1352	92	1
1	1354	92	0
1	1381	94	1
1	1383	94	0
1	1410	96	1
1	1412	96	0
1	1439	98	1
1	1441	98	0
1	1468	100	1
1	1470	100	0
2	0	0	0
2	0	0	0
2	0	0	0
2	0	0	0
2	0	0	0
2	9	2	512
2	11	2	0
2	35	2.000331334256	1376
2	46	2.000805334256	0
2	76	4	1376
2	78	4	0
2	105	6	1376
2	107	6	0
2	134	8	1376
2	136	8	0
2	163	10	1376
2	165	10	0
2	192	12	1376
2	194	12	0
2	221	14	1376
2	223	14	0
2	250	16	1376
2	252	16	0
2	279	18	1376
2	281	18	0
2	308	20	1376
2	310	20	0
2	337	22	1376
2	339	22	0
2	366	24	1376
2	368	24	0
2	395	26	1376
2	397	26	0
2	424	28	1376
2	426	28	0
2	453	30	1376
2	455	30	0
2	482	32	1376
2	484	32	0
2	511	34	1376
2	513	34	0
2	540	36	1376
2	542	36	0
2	569	38	1376
2	571	38	0
2	598	40	1376
2	600	40	0
2	627	42	1376
2	629	42	0
2	656	44	1376
2	658	44	0
2	685	46	1376
2	687	46	0
2	714	48	1376
2	716	48	0
2	743	50	1376
2	745	50	0
2	772	52	1376
2	774	52	0
2	801	54	1376
2	803	54	0
2	830	56	1376
2	832	56	0
2	859	58	1376
2	861	58	0
2	888	60	1376
2	890	60	0
2	917	62	1376
2	919	62	0
2	946	64	1376
2	948	64	0
2	975	66	1376
2	977	66	0
2	1004	68	1376
2	1006	68	0
2	1033	70	1376
2	1035	70	0
2	1062	72	1376
2	1064	72	0
2	1091	74	1376
2	1093	74	0
2	1120	76	1376
2	1122	76	0
2	1149	78	1376
2	1151	78	0
2	1178	80	1376
2	1180	80	0
2	1207	82	1376
2	1209	82	0
2	1236	84	1376
2	1238	84	0
2	1265	86	1376
2	1267	86	0
2	1294	88	1376
2	1296	88	0
2	1323	90	1376
2	1325	90	0
2	1352	92	1376
2	1354	92	0
2	1381	94	1376
2	1383	94	0
2	1410	96	1376
2	1412	96	0
2	1439	98	1376
2	1441	98	0
2	1468	100	1376
2	1470	100	0
3	0	0	0
3	0	0	0
3	11	2	1
3	15	2.00005	0
3	46	2.000805334256	1
3	66	2.000936668512	0
3	78	4	1
3	98	4.000131334256	0
3	107	6	1
3	127	6.000131334256	0
3	136	8	1
3	156	8.000131334256	0
3	165	10	1
3	185	10.000131334256	0
3	194	12	1
3	214	12.000131334256	0
3	223	14	1
3	243	14.000131334256	0
3	252	16	1
3	272	16.000131334256	0
3	281	18	1
3	301	18.000131334256	0
3	310	20	1
3	330	20.000131334256	0
3	339	22	1
3	359	22.000131334256	0
3	368	24	1
3	388	24.000131334256	0
3	397	26	1
3	417	26.000131334256	0
3	426	28	1
3	446	28.000131334256	0
3	455	30	1
3	475	30.000131334256	0
3	484	32	1
3	504	32.000131334256	0
3	513	34	1
3	533	34.000131334256	0
3	542	36	1
3	562	36.000131334256	0
3	571	38	1
3	591	38.000131334256	0
3	600	40	1
3	620	40.000131334256	0
3	629	42	1
3	649	42.000131334256	0
3	658	44	1
3	678	44.000131334256	0
3	687	46	1
3	707	46.000131334256	0
3	716	48	1
3	736	48.000131334256	0
3	745	50	1
3	765	50.000131334256	0
3	774	52	1
3	794	52.000131334256	0
3	803	54	1
3	823	54.000131334256	0
3	832	56	1
3	852	56.000131334256	0
3	861	58	1
3	881	58.000131334256	0
3	890	60	1
3	910	60.000131334256	0
3	919	62	1
3	939	62.000131334256	0
3	948	64	1
3	968	64.000131334256	0
3	977	66	1
3	997	66.000131334256	0
3	1006	68	1
3	1026	68.000131334256	0
3	1035	70	1
3	1055	70.000131334256	0
3	1064	72	1
3	1084	72.000131334256	0
3	1093	74	1
3	1113	74.000131334256	0
3	1122	76	1
3	1142	76.000131334256	0
3	1151	78	1
3	1171	78.000131334256	0
3	1180	80	1
3	1200	80.000131334256	0
3	1209	82	1
3	1229	82.000131334256	0
3	1238	84	1
3	1258	84.000131334256	0
3	1267	86	1
3	1287	86.000131334256	0
3	1296	88	1
3	1316	88.000131334256	0
3	1325	90	1
3	1345	90.000131334256	0
3	1354	92	1
3	1374	92.000131334256	0
3	1383	94	1
3	1403	94.000131334256	0
3	1412	96	1
3	1432	96.000131334256	0
3	1441	98	1
3	1461	98.000131334256	0
3	1470	100	1
4	0	0	0
4	0	0	0
4	9	2	1
4	10	2	0
4	35	2.000331334256	1
4	37	2.000341334256	0
4	42	2.000375334256	1
4	45	2.000805334256	0
4	76	4	1
4	77	4	0
4	105	6	1
4	106	6	0
4	134	8	1
4	135	8	0
4	163	10	1
4	164	10	0
4	192	12	1
4	193	12	0
4	221	14	1
4	222	14	0
4	250	16	1
4	251	16	0
4	279	18	1
4	280	18	0
4	308	20	1
4	309	20	0
4	337	22	1
4	338	22	0
4	366	24	1
4	367	24	0
4	395	26	1
4	396	26	0
4	424	28	1
4	425	28	0
4	453	30	1
4	454	30	0
4	482	32	1
4	483	32	0
4	511	34	1
4	512	34	0
4	540	36	1
4	541	36	0
4	569	38	1
4	570	38	0
4	598	40	1
4	599	40	0
4	627	42	1
4	628	42	0
4	656	44	1
4	657	44	0
4	685	46	1
4	686	46	0
4	714	48	1
4	715	48	0
4	743	50	1
4	744	50	0
4	772	52	1
4	773	52	0
4	801	54	1
4	802	54	0
4	830	56	1
4	831	56	0
4	859	58	1
4	860	58	0
4	888	60	1
4	889	60	0
4	917	62	1
4	918	62	0
4	946	64	1
4	947	64	0
4	975	66	1
4	976	66	0
4	1004	68	1
4	1005	68	0
4	1033	70	1
4	1034	70	0
4	1062	72	1
4	1063	72	0
4	1091	74	1
4	1092	74	0
4	1120	76	1
4	1121	76	0
4	1149	78	1
4	1150	78	0
4	1178	80	1
4	1179	80	0
4	1207	82	1
4	1208	82	0
4	1236	84	1
4	1237	84	0
4	1265	86	1
4	1266	86	0
4	1294	88	1
4	1295	88	0
4	1323	90	1
4	1324	90	0
4	1352	92	1
4	1353	92	0
4	1381	94	1
4	1382	94	0
4	1410	96	1
4	1411	96	0
4	1439	98	1
4	1440	98	0
4	1468	100	1
4	1469	100	0
5	0	0	0
6	0	0	0
7	0	0	0
8	0	0	0
8	0	0	0
8	24	2.000280667128	1
8	44	2.000376001384	0
9	0	0	0
9	0	0	0
9	0	0	0
9	0	0	0
9	0	0	0
9	22	2.000050667128	1
9	24	2.000280667128	0
10	0	0	0
10	0	0	0
10	0	0	0
10	0	0	0
10	0	0	0
10	22	2.000050667128	512
10	24	2.000280667128	0
11	0	0	0
11	0	0	0
11	24	2.000280667128	1
11	44	2.000376001384	0
12	0	0	0
12	0	0	0
12	22	2.000050667128	1
12	23	2.000280667128	0
13	0	0	0
13	56	2.000892001384	1
13	88	4.000086667128	2
13	117	6.000086667128	3
13	146	8.000086667128	4
13	175	10.000086667128	5
13	204	12.000086667128	6
13	233	14.000086667128	7
13	262	16.000086667128	8
13	291	18.000086667128	9
13	320	20.000086667128	10
13	349	22.000086667128	11
13	378	24.000086667128	12
13	407	26.000086667128	13
13	436	28.000086667128	14
13	465	30.000086667128	15
13	494	32.000086667128	16
13	523	34.000086667128	17
13	552	36.000086667128	18
13	581	38.000086667128	19
13	610	40.000086667128	20
13	639	42.000086667128	21
13	668	44.000086667128	22
13	697	46.000086667128	23
13	726	48.000086667128	24
13	755	50.000086667128	25
13	784	52.000086667128	26
13	813	54.000086667128	27
13	842	56.000086667128	28
13	871	58.000086667128	29
13	900	60.000086667128	30
13	929	62.000086667128	31
13	958	64.000086667128	32
13	987	66.000086667128	33
13	1016	68.000086667128	34
13	1045	70.000086667128	35
13	1074	72.000086667128	36
13	1103	74.000086667128	37
13	1132	76.000086667128	38
13	1161	78.000086667128	39
13	1190	80.000086667128	40
13	1219	82.000086667128	41
13	1248	84.000086667128	42
13	1277	86.000086667128	43
13	1306	88.000086667128	44
13	1335	90.000086667128	45
13	1364	92.000086667128	46
13	1393	94.000086667128	47
13	1422	96.000086667128	48
13	1451	98.000086667128	49
14	0	0	0
15	0	0	0
16	0	0	0
16	0	0	0
16	0	0	2
16	12	2	3
16	16	2.00005	2
16	37	2.000341334256	3
16	42	2.000375334256	2
16	47	2.000805334256	3
16	51	2.000891334256	2
16	79	4	3
16	83	4.000086	2
16	108	6	3
16	112	6.000086	2
16	137	8	3
16	141	8.000086	2
16	166	10	3
16	170	10.000086	2
16	195	12	3
16	199	12.000086	2
16	224	14	3
16	228	14.000086	2
16	253	16	3
16	257	16.000086	2
16	282	18	3
16	286	18.000086	2
16	311	20	3
16	315	20.000086	2
16	340	22	3
16	344	22.000086	2
16	369	24	3
16	373	24.000086	2
16	398	26	3
16	402	26.000086	2
16	427	28	3
16	431	28.000086	2
16	456	30	3
16	460	30.000086	2
16	485	32	3
16	489	32.000086	2
16	514	34	3
16	518	34.000086	2
16	543	36	3
16	547	36.000086	2
16	572	38	3
16	576	38.000086	2
16	601	40	3
16	605	40.000086	2
16	630	42	3
16	634	42.000086	2
16	659	44	3
16	663	44.000086	2
16	688	46	3
16	692	46.000086	2
16	717	48	3
16	721	48.000086	2
16	746	50	3
16	750	50.000086	2
16	775	52	3
16	779	52.000086	2
16	804	54	3
16	808	54.000086	2
16	833	56	3
16	837	56.000086	2
16	862	58	3
16	866	58.000086	2
16	891	60	3
16	895	60.000086	2
16	920	62	3
16	924	62.000086	2
16	949	64	3
16	953	64.000086	2
16	978	66	3
16	982	66.000086	2
16	1007	68	3
16	1011	68.000086	2
16	1036	70	3
16	1040	70.000086	2
16	1065	72	3
16	1069	72.000086	2
16	1094	74	3
16	1098	74.000086	2
16	1123	76	3
16	1127	76.000086	2
16	1152	78	3
16	1156	78.000086	2
16	1181	80	3