version 3
run General-0-20260406-21:14:22-4100
attr configname General
attr datetime 20260406-21:14:22
attr datetimef 20260406-211422
attr experiment General
attr inifile omnetpp.ini
attr iterationvars ""
attr iterationvarsd ""
attr iterationvarsf ""
attr measurement ""
attr network simulations.KriptoAgi
attr processid 4100
attr repetition 0
attr replication #0
attr resultdir results
attr runnumber 0
attr seedset 0
config image-path ../../inet4.5/images
config network simulations.KriptoAgi
config sim-time-limit 100s
config *.sensor.numApps 1
config *.sensor.app[0].typename UdpBasicApp
config *.sensor.app[0].destAddresses "\"gateway\""
config *.sensor.app[0].destPort 5000
config *.sensor.app[0].messageLength 116B
config *.sensor.udp.provDelay 0.7455349ms
config *.sensor.app[0].sendInterval 1s
config *.gateway.numApps 1
config *.gateway.app[0].typename UdpSink
config *.gateway.app[0].localPort 5000
config *.configurator.typename Ipv4NetworkConfigurator
config **.wlan[*].mgmt.typename Ieee80211MgmtAdhoc
config **.wlan[*].agent.typename ""

vector 0 KriptoAgi.sensor.wlan[0].mac.dcf frameSequenceActive:vector ETV
attr autoWarmupFilter false
attr interpolationmode sample-hold
attr recordingmode vector
attr source warmup(count(frameSequenceStarted)-count(frameSequenceFinished))
attr title "frame sequence active"
vector 1 KriptoAgi.sensor.wlan[0].mac.dcf.channelAccess.inProgressFrames queueLength:vector ETV
attr autoWarmupFilter false
attr interpolationmode sample-hold
attr recordingmode vector
attr source "warmup(count(packetEnqueued) - count(packetDequeued))"
attr title "queue length"
vector 2 KriptoAgi.sensor.wlan[0].mac.dcf.channelAccess.contention backoffActive:vector ETV
attr autoWarmupFilter false
attr interpolationmode sample-hold
attr recordingmode vector
attr source warmup(count(backoffStarted)-count(backoffStopped))
attr title "backoff active"
vector 3 KriptoAgi.sensor.udp passedUpPk:vector(count) ETV
attr interpolationmode none
attr recordingmode vector(count)
attr source packetSentToUpper
attr title "packets passed up, count"
vector 4 KriptoAgi.sensor.udp droppedPkWrongPort:vector(count) ETV
attr interpolationmode none
attr recordingmode vector(count)
attr source packetDropReasonIsNoPortFound(packetDropped)
attr title "packets dropped (wrong port), count"
vector 5 KriptoAgi.sensor.udp droppedPkBadChecksum:vector(count) ETV
attr interpolationmode none
attr recordingmode vector(count)
attr source packetDropReasonIsIncorrectlyReceived(packetDropped)
attr title "packets dropped (checksum error), count"
vector 6 KriptoAgi.gateway.wlan[0].mac.dcf frameSequenceActive:vector ETV
attr autoWarmupFilter false
attr interpolationmode sample-hold
attr recordingmode vector
attr source warmup(count(frameSequenceStarted)-count(frameSequenceFinished))
attr title "frame sequence active"
vector 7 KriptoAgi.gateway.wlan[0].mac.dcf.channelAccess.inProgressFrames queueLength:vector ETV
attr autoWarmupFilter false
attr interpolationmode sample-hold
attr recordingmode vector
attr source "warmup(count(packetEnqueued) - count(packetDequeued))"
attr title "queue length"
vector 8 KriptoAgi.gateway.wlan[0].mac.dcf.channelAccess.contention backoffActive:vector ETV
attr autoWarmupFilter false
attr interpolationmode sample-hold
attr recordingmode vector
attr source warmup(count(backoffStarted)-count(backoffStopped))
attr title "backoff active"
vector 9 KriptoAgi.gateway.udp passedUpPk:vector(count) ETV
attr interpolationmode none
attr recordingmode vector(count)
attr source packetSentToUpper
attr title "packets passed up, count"
vector 10 KriptoAgi.gateway.udp droppedPkWrongPort:vector(count) ETV
attr interpolationmode none
attr recordingmode vector(count)
attr source packetDropReasonIsNoPortFound(packetDropped)
attr title "packets dropped (wrong port), count"
vector 11 KriptoAgi.gateway.udp droppedPkBadChecksum:vector(count) ETV
attr interpolationmode none
attr recordingmode vector(count)
attr source packetDropReasonIsIncorrectlyReceived(packetDropped)
attr title "packets dropped (checksum error), count"
vector 12 KriptoAgi.sensor.wlan[0].radio radioMode:vector ETV
attr interpolationmode sample-hold
attr recordingmode vector
attr source radioModeChanged
attr title "Radio mode"
vector 13 KriptoAgi.sensor.wlan[0].radio radioChannel:vector ETV
attr interpolationmode sample-hold
attr recordingmode vector
attr source radioChannelChanged
attr title "Radio channel"
vector 14 KriptoAgi.gateway.wlan[0].radio radioMode:vector ETV
attr interpolationmode sample-hold
attr recordingmode vector
attr source radioModeChanged
attr title "Radio mode"
vector 15 KriptoAgi.gateway.wlan[0].radio radioChannel:vector ETV
attr interpolationmode sample-hold
attr recordingmode vector
attr source radioChannelChanged
attr title "Radio channel"
vector 16 KriptoAgi.sensor.wlan[0].radio receptionState:vector ETV
attr interpolationmode sample-hold
attr recordingmode vector
attr source receptionStateChanged
attr title "Radio reception state"
vector 17 KriptoAgi.sensor.wlan[0].mac.dcf.channelAccess.contention stateChanged:vector ETV
attr enum IDLE,DEFER,IFS_AND_BACKOFF
attr interpolationmode none
attr recordingmode vector
attr title "contention state changed"
attr type enum
vector 18 KriptoAgi.gateway.wlan[0].radio receptionState:vector ETV
attr interpolationmode sample-hold
attr recordingmode vector
attr source receptionStateChanged
attr title "Radio reception state"
vector 19 KriptoAgi.gateway.wlan[0].mac.dcf.channelAccess.contention stateChanged:vector ETV
attr enum IDLE,DEFER,IFS_AND_BACKOFF
attr interpolationmode none
attr recordingmode vector
attr title "contention state changed"
attr type enum
vector 20 KriptoAgi.sensor.wlan[0].mac.dcf.recoveryProcedure contentionWindowChanged:vector ETV
attr interpolationmode sample-hold
attr recordingmode vector
attr title "contention window"
vector 21 KriptoAgi.gateway.wlan[0].mac.dcf.recoveryProcedure contentionWindowChanged:vector ETV
attr interpolationmode sample-hold
attr recordingmode vector
attr title "contention window"
vector 22 KriptoAgi.sensor.app[0] packetSent:vector(packetBytes) ETV
attr interpolationmode none
attr recordingmode vector(packetBytes)
attr source packetSent
attr title "packets sent, packetBytes"
vector 23 KriptoAgi.sensor.udp packetSent:vector(packetBytes) ETV
attr interpolationmode none
attr recordingmode vector(packetBytes)
attr source packetSent
attr title "packets sent, packetBytes"
vector 24 KriptoAgi.sensor.ipv4.arp arpRequestSent:vector(packetBytes) ETV
attr recordingmode vector(packetBytes)
attr source arpRequestSent
attr title "ARP request sent, packetBytes"
vector 25 KriptoAgi.sensor.wlan[0].mac packetReceivedFromUpper:vector(packetBytes) ETV
attr interpolationmode none
attr recordingmode vector(packetBytes)
attr title "packets received from upper layer, packetBytes"
vector 26 KriptoAgi.sensor.wlan[0].mac.dcf.channelAccess.pendingQueue incomingPacketLengths:vector ETV
attr interpolationmode none
attr recordingmode vector
attr source packetLength(packetPushStarted)
attr title "incoming packet lengths"
attr unit b
vector 27 KriptoAgi.sensor.wlan[0].mac.dcf.channelAccess.pendingQueue incomingDataRate:vector ETV
attr interpolationmode linear
attr recordingmode vector
attr source throughput(packetPushStarted)
attr title "incoming datarate"
attr unit bps
vector 28 KriptoAgi.sensor.wlan[0].mac.dcf.channelAccess.pendingQueue queueLength:vector ETV
attr autoWarmupFilter false
attr interpolationmode sample-hold
attr recordingmode vector
attr source "warmup(atomic(constant0(packetPushEnded) + count(packetPushStarted) - count(packetPulled) - count(packetRemoved) - count(packetDropped)))"
attr title "queue length"
attr unit pk
vector 29 KriptoAgi.sensor.wlan[0].mac.dcf.channelAccess.pendingQueue queueBitLength:vector ETV
attr autoWarmupFilter false
attr interpolationmode sample-hold
attr recordingmode vector
attr source "warmup(atomic(constant0(packetPushEnded) + sum(packetLength(packetPushStarted)) - sum(packetLength(packetPulled)) - sum(packetLength(packetRemoved)) - sum(packetLength(packetDropped))))"
attr title "queue bit length"
attr unit b
vector 30 KriptoAgi.sensor.wlan[0].mac.dcf.channelAccess.contention backoffPeriodGenerated:vector ETV
attr interpolationmode none
attr recordingmode vector
attr title "backoff periods"
vector 31 KriptoAgi.sensor.wlan[0].mac.dcf.channelAccess.pendingQueue queueingTime:vector ETV
attr interpolationmode none
attr recordingmode vector
attr source queueingTime(packetPulled)
attr title "queueing times"
attr unit s
vector 32 KriptoAgi.sensor.wlan[0].mac.dcf.channelAccess.pendingQueue outgoingPacketLengths:vector ETV
attr interpolationmode none
attr recordingmode vector
attr source packetLength(packetPulled)
attr title "outgoing packet lengths"
attr unit b
vector 33 KriptoAgi.sensor.wlan[0].mac.dcf.channelAccess.pendingQueue outgoingDataRate:vector ETV
attr interpolationmode linear
attr recordingmode vector
attr source throughput(packetPulled)
attr title "outgoing datarate"
attr unit bps
vector 34 KriptoAgi.sensor.wlan[0].mac.dcf datarateSelected:vector ETV
attr interpolationmode none
attr recordingmode vector
attr title "datarates selected"
vector 35 KriptoAgi.sensor.wlan[0].mac packetSentToLower:vector(packetBytes) ETV
attr interpolationmode none
attr recordingmode vector(packetBytes)
attr title "packets sent to lower layer, packetBytes"
vector 36 KriptoAgi.sensor.wlan[0].radio transmissionState:vector ETV
attr interpolationmode sample-hold
attr recordingmode vector
attr source transmissionStateChanged
attr title "Radio transmission state"
vector 37 KriptoAgi.sensor.wlan[0].mac.dcf packetSentToPeer:vector(packetBytes) ETV
attr interpolationmode none
attr recordingmode vector(packetBytes)
attr title "packets sent, packetBytes"
vector 38 KriptoAgi.sensor.wlan[0].mac.dcf packetSentToPeerMulticast:vector(packetBytes) ETV
attr interpolationmode none
attr recordingmode vector(packetBytes)
attr source ieee80211Multicast(packetSentToPeer)
attr title "packets sent: multicast, packetBytes"
vector 39 KriptoAgi.sensor.wlan[0].mac.dcf packetSentToPeerBroadcast:vector(packetBytes) ETV
attr interpolationmode none
attr recordingmode vector(packetBytes)
attr source ieee80211Broadcast(packetSentToPeer)
attr title "packets sent: broadcast , packetBytes"
vector 40 KriptoAgi.sensor.wlan[0].mac.dcf packetSentToPeerWithoutRetry:vector(packetBytes) ETV
attr interpolationmode none
attr recordingmode vector(packetBytes)
attr source ieee80211NotRetry(packetSentToPeer)
attr title "packets sent: without retry, packetBytes"
vector 41 KriptoAgi.sensor.wlan[0].mac.dcf.channelAccess.inProgressFrames queueingTime:vector ETV
attr interpolationmode none
attr recordingmode vector
attr source queueingTime(packetDequeued)
attr title "queueing times"
vector 42 KriptoAgi.gateway.wlan[0].mac packetReceivedFromLower:vector(packetBytes) ETV
attr interpolationmode none
attr recordingmode vector(packetBytes)
attr title "packets received from lower layer, packetBytes"
vector 43 KriptoAgi.gateway.wlan[0].mac.dcf packetReceivedFromPeer:vector(packetBytes) ETV
attr interpolationmode none
attr recordingmode vector(packetBytes)
attr title "packets received, packetBytes"
vector 44 KriptoAgi.gateway.wlan[0].mac.dcf packetReceivedFromPeerMulticast:vector(packetBytes) ETV
attr interpolationmode none
attr recordingmode vector(packetBytes)
attr source ieee80211Multicast(packetReceivedFromPeer)
attr title "packets received: multicast, packetBytes"
vector 45 KriptoAgi.gateway.wlan[0].mac.dcf packetReceivedFromPeerBroadcast:vector(packetBytes) ETV
attr interpolationmode none
attr recordingmode vector(packetBytes)
attr source ieee80211Broadcast(packetReceivedFromPeer)
attr title "packets received: broadcast, packetBytes"
vector 46 KriptoAgi.gateway.wlan[0].mac.dcf packetReceivedFromPeerWithoutRetry:vector(packetBytes) ETV
attr interpolationmode none
attr recordingmode vector(packetBytes)
attr source ieee80211NotRetry(packetReceivedFromPeer)
attr title "packets received: without retry, packetBytes"
vector 47 KriptoAgi.gateway.wlan[0].mac packetSentToUpper:vector(packetBytes) ETV
attr interpolationmode none
attr recordingmode vector(packetBytes)
attr title "packets sent to upper layer, packetBytes"
vector 48 KriptoAgi.gateway.ipv4.arp arpReplySent:vector(packetBytes) ETV
attr recordingmode vector(packetBytes)
attr source arpReplySent
attr title "ARP replies sent, packetBytes"
vector 49 KriptoAgi.gateway.wlan[0].mac packetReceivedFromUpper:vector(packetBytes) ETV
attr interpolationmode none
attr recordingmode vector(packetBytes)
attr title "packets received from upper layer, packetBytes"
vector 50 KriptoAgi.gateway.wlan[0].mac.dcf.channelAccess.pendingQueue incomingPacketLengths:vector ETV
attr interpolationmode none
attr recordingmode vector
attr source packetLength(packetPushStarted)
attr title "incoming packet lengths"
attr unit b
vector 51 KriptoAgi.gateway.wlan[0].mac.dcf.channelAccess.pendingQueue incomingDataRate:vector ETV
attr interpolationmode linear
attr recordingmode vector
attr source throughput(packetPushStarted)
attr title "incoming datarate"
attr unit bps
vector 52 KriptoAgi.gateway.wlan[0].mac.dcf.channelAccess.pendingQueue queueLength:vector ETV
attr autoWarmupFilter false
attr interpolationmode sample-hold
attr recordingmode vector
attr source "warmup(atomic(constant0(packetPushEnded) + count(packetPushStarted) - count(packetPulled) - count(packetRemoved) - count(packetDropped)))"
attr title "queue length"
attr unit pk
vector 53 KriptoAgi.gateway.wlan[0].mac.dcf.channelAccess.pendingQueue queueBitLength:vector ETV
attr autoWarmupFilter false
attr interpolationmode sample-hold
attr recordingmode vector
attr source "warmup(atomic(constant0(packetPushEnded) + sum(packetLength(packetPushStarted)) - sum(packetLength(packetPulled)) - sum(packetLength(packetRemoved)) - sum(packetLength(packetDropped))))"
attr title "queue bit length"
attr unit b
vector 54 KriptoAgi.gateway.wlan[0].mac.dcf.channelAccess.contention backoffPeriodGenerated:vector ETV
attr interpolationmode none
attr recordingmode vector
attr title "backoff periods"
vector 55 KriptoAgi.gateway.wlan[0].mac.dcf.channelAccess.pendingQueue queueingTime:vector ETV
attr interpolationmode none
attr recordingmode vector
attr source queueingTime(packetPulled)
attr title "queueing times"
attr unit s
vector 56 KriptoAgi.gateway.wlan[0].mac.dcf.channelAccess.pendingQueue outgoingPacketLengths:vector ETV
attr interpolationmode none
attr recordingmode vector
attr source packetLength(packetPulled)
attr title "outgoing packet lengths"
attr unit b
vector 57 KriptoAgi.gateway.wlan[0].mac.dcf.channelAccess.pendingQueue outgoingDataRate:vector ETV
attr interpolationmode linear
attr recordingmode vector
attr source throughput(packetPulled)
attr title "outgoing datarate"
attr unit bps
vector 58 KriptoAgi.gateway.wlan[0].mac.dcf datarateSelected:vector ETV
attr interpolationmode none
attr recordingmode vector
attr title "datarates selected"
vector 59 KriptoAgi.gateway.wlan[0].mac packetSentToLower:vector(packetBytes) ETV
attr interpolationmode none
attr recordingmode vector(packetBytes)
attr title "packets sent to lower layer, packetBytes"
vector 60 KriptoAgi.gateway.wlan[0].radio transmissionState:vector ETV
attr interpolationmode sample-hold
attr recordingmode vector
attr source transmissionStateChanged
attr title "Radio transmission state"
vector 61 KriptoAgi.gateway.wlan[0].mac.dcf packetSentToPeer:vector(packetBytes) ETV
attr interpolationmode none
attr recordingmode vector(packetBytes)
attr title "packets sent, packetBytes"
vector 62 KriptoAgi.gateway.wlan[0].mac.dcf packetSentToPeerUnicast:vector(packetBytes) ETV
attr interpolationmode none
attr recordingmode vector(packetBytes)
attr source ieee80211Unicast(packetSentToPeer)
attr title "packets sent: unicast, packetBytes"
vector 63 KriptoAgi.gateway.wlan[0].mac.dcf packetSentToPeerWithoutRetry:vector(packetBytes) ETV
attr interpolationmode none
attr recordingmode vector(packetBytes)
attr source ieee80211NotRetry(packetSentToPeer)
attr title "packets sent: without retry, packetBytes"
vector 64 KriptoAgi.gateway.wlan[0].mac.rx nav:vector ETV
attr interpolationmode linear
attr recordingmode vector
attr source navChanged
attr title "network allocation vector"
vector 65 KriptoAgi.sensor.wlan[0].mac packetReceivedFromLower:vector(packetBytes) ETV
attr interpolationmode none
attr recordingmode vector(packetBytes)
attr title "packets received from lower layer, packetBytes"
vector 66 KriptoAgi.sensor.wlan[0].mac.dcf packetReceivedFromPeer:vector(packetBytes) ETV
attr interpolationmode none
attr recordingmode vector(packetBytes)
attr title "packets received, packetBytes"
vector 67 KriptoAgi.sensor.wlan[0].mac.dcf packetReceivedFromPeerUnicast:vector(packetBytes) ETV
attr interpolationmode none
attr recordingmode vector(packetBytes)
attr source ieee80211Unicast(packetReceivedFromPeer)
attr title "packets received: unicast, packetBytes"
vector 68 KriptoAgi.sensor.wlan[0].mac.dcf packetReceivedFromPeerWithoutRetry:vector(packetBytes) ETV
attr interpolationmode none
attr recordingmode vector(packetBytes)
attr source ieee80211NotRetry(packetReceivedFromPeer)
attr title "packets received: without retry, packetBytes"
vector 69 KriptoAgi.sensor.wlan[0].mac packetSentToUpper:vector(packetBytes) ETV
attr interpolationmode none
attr recordingmode vector(packetBytes)
attr title "packets sent to upper layer, packetBytes"
vector 70 KriptoAgi.sensor.wlan[0].mac.dcf packetSentToPeerUnicast:vector(packetBytes) ETV
attr interpolationmode none
attr recordingmode vector(packetBytes)
attr source ieee80211Unicast(packetSentToPeer)
attr title "packets sent: unicast, packetBytes"
vector 71 KriptoAgi.gateway.wlan[0].mac.dcf packetReceivedFromPeerUnicast:vector(packetBytes) ETV
attr interpolationmode none
attr recordingmode vector(packetBytes)
attr source ieee80211Unicast(packetReceivedFromPeer)
attr title "packets received: unicast, packetBytes"
vector 72 KriptoAgi.gateway.wlan[0].mac.dcf.channelAccess.inProgressFrames queueingTime:vector ETV
attr interpolationmode none
attr recordingmode vector
attr source queueingTime(packetDequeued)
attr title "queueing times"
vector 73 KriptoAgi.sensor.wlan[0].mac.rx nav:vector ETV
attr interpolationmode linear
attr recordingmode vector
attr source navChanged
attr title "network allocation vector"
vector 74 KriptoAgi.gateway.udp packetReceived:vector(packetBytes) ETV
attr interpolationmode none
attr recordingmode vector(packetBytes)
attr source packetReceived
attr title "packets received, packetBytes"
vector 75 KriptoAgi.gateway.app[0] packetReceived:vector(packetBytes) ETV
attr interpolationmode none
attr recordingmode vector(packetBytes)
attr source packetReceived
attr title "packets received, packetBytes"
vector 76 KriptoAgi.gateway.app[0] throughput:vector ETV
attr recordingmode vector
attr source throughput(packetReceived)
attr title throughput
attr unit bps
vector 77 KriptoAgi.gateway.app[0] endToEndDelay:vector ETV
attr interpolationmode none
attr recordingmode vector
attr source dataAge(packetReceived)
attr title "end-to-end delay"
attr unit s
vector 78 KriptoAgi.gateway.app[0] rcvdPkSeqNo:vector ETV
attr interpolationmode none
attr recordingmode vector
attr source appPkSeqNo(packetReceived)
attr title "received packet sequence number"
vector 79 KriptoAgi.sensor.app[0] throughput:vector ETV
attr recordingmode vector
attr source throughput(packetReceived)
attr title throughput
attr unit bps
0	0	0	0
0	0	0	0
0	11	1	1
0	15	1.00005	0
0	46	1.000805334256	1
0	66	1.000940668512	0
0	78	2	1
0	98	2.000135334256	0
0	107	3	1
0	127	3.000135334256	0
0	136	4	1
0	156	4.000135334256	0
0	165	5	1
0	185	5.000135334256	0
0	194	6	1
0	214	6.000135334256	0
0	223	7	1
0	243	7.000135334256	0
0	252	8	1
0	272	8.000135334256	0
0	281	9	1
0	301	9.000135334256	0
0	310	10	1
0	330	10.000135334256	0
0	339	11	1
0	359	11.000135334256	0
0	368	12	1
0	388	12.000135334256	0
0	397	13	1
0	417	13.000135334256	0
0	426	14	1
0	446	14.000135334256	0
0	455	15	1
0	475	15.000135334256	0
0	484	16	1
0	504	16.000135334256	0
0	513	17	1
0	533	17.000135334256	0
0	542	18	1
0	562	18.000135334256	0
0	571	19	1
0	591	19.000135334256	0
0	600	20	1
0	620	20.000135334256	0
0	629	21	1
0	649	21.000135334256	0
0	658	22	1
0	678	22.000135334256	0
0	687	23	1
0	707	23.000135334256	0
0	716	24	1
0	736	24.000135334256	0
0	745	25	1
0	765	25.000135334256	0
0	774	26	1
0	794	26.000135334256	0
0	803	27	1
0	823	27.000135334256	0
0	832	28	1
0	852	28.000135334256	0
0	861	29	1
0	881	29.000135334256	0
0	890	30	1
0	910	30.000135334256	0
0	919	31	1
0	939	31.000135334256	0
0	948	32	1
0	968	32.000135334256	0
0	977	33	1
0	997	33.000135334256	0
0	1006	34	1
0	1026	34.000135334256	0
0	1035	35	1
0	1055	35.000135334256	0
0	1064	36	1
0	1084	36.000135334256	0
0	1093	37	1
0	1113	37.000135334256	0
0	1122	38	1
0	1142	38.000135334256	0
0	1151	39	1
0	1171	39.000135334256	0
0	1180	40	1
0	1200	40.000135334256	0
0	1209	41	1
0	1229	41.000135334256	0
0	1238	42	1
0	1258	42.000135334256	0
0	1267	43	1
0	1287	43.000135334256	0
0	1296	44	1
0	1316	44.000135334256	0
0	1325	45	1
0	1345	45.000135334256	0
0	1354	46	1
0	1374	46.000135334256	0
0	1383	47	1
0	1403	47.000135334256	0
0	1412	48	1
0	1432	48.000135334256	0
0	1441	49	1
0	1461	49.000135334256	0
0	1470	50	1
0	1490	50.000135334256	0
0	1499	51	1
0	1519	51.000135334256	0
0	1528	52	1
0	1548	52.000135334256	0
0	1557	53	1
0	1577	53.000135334256	0
0	1586	54	1
0	1606	54.000135334256	0
0	1615	55	1
0	1635	55.000135334256	0
0	1644	56	1
0	1664	56.000135334256	0
0	1673	57	1
0	1693	57.000135334256	0
0	1702	58	1
0	1722	58.000135334256	0
0	1731	59	1
0	1751	59.000135334256	0
0	1760	60	1
0	1780	60.000135334256	0
0	1789	61	1
0	1809	61.000135334256	0
0	1818	62	1
0	1838	62.000135334256	0
0	1847	63	1
0	1867	63.000135334256	0
0	1876	64	1
0	1896	64.000135334256	0
0	1905	65	1
0	1925	65.000135334256	0
0	1934	66	1
0	1954	66.000135334256	0
0	1963	67	1
0	1983	67.000135334256	0
0	1992	68	1
0	2012	68.000135334256	0
0	2021	69	1
0	2041	69.000135334256	0
0	2050	70	1
0	2070	70.000135334256	0
0	2079	71	1
0	2099	71.000135334256	0
0	2108	72	1
0	2128	72.000135334256	0
0	2137	73	1
0	2157	73.000135334256	0
0	2166	74	1
0	2186	74.000135334256	0
0	2195	75	1
0	2215	75.000135334256	0
0	2224	76	1
0	2244	76.000135334256	0
0	2253	77	1
0	2273	77.000135334256	0
0	2282	78	1
0	2302	78.000135334256	0
0	2311	79	1
0	2331	79.000135334256	0
0	2340	80	1
0	2360	80.000135334256	0
0	2369	81	1
0	2389	81.000135334256	0
0	2398	82	1
0	2418	82.000135334256	0
0	2427	83	1
0	2447	83.000135334256	0
0	2456	84	1
0	2476	84.000135334256	0
0	2485	85	1
0	2505	85.000135334256	0
0	2514	86	1
0	2534	86.000135334256	0
0	2543	87	1
0	2563	87.000135334256	0
0	2572	88	1
0	2592	88.000135334256	0
0	2601	89	1
0	2621	89.000135334256	0
0	2630	90	1
0	2650	90.000135334256	0
0	2659	91	1
0	2679	91.000135334256	0
0	2688	92	1
0	2708	92.000135334256	0
0	2717	93	1
0	2737	93.000135334256	0
0	2746	94	1
0	2766	94.000135334256	0
0	2775	95	1
0	2795	95.000135334256	0
0	2804	96	1
0	2824	96.000135334256	0
0	2833	97	1
0	2853	97.000135334256	0
0	2862	98	1
0	2882	98.000135334256	0
0	2891	99	1
0	2911	99.000135334256	0
0	2920	100	1
1	0	0	0
1	0	0	0
1	11	1	1
1	15	1.00005	0
1	46	1.000805334256	1
1	66	1.000940668512	0
1	78	2	1
1	98	2.000135334256	0
1	107	3	1
1	127	3.000135334256	0
1	136	4	1
1	156	4.000135334256	0
1	165	5	1
1	185	5.000135334256	0
1	194	6	1
1	214	6.000135334256	0
1	223	7	1
1	243	7.000135334256	0
1	252	8	1
1	272	8.000135334256	0
1	281	9	1
1	301	9.000135334256	0
1	310	10	1
1	330	10.000135334256	0
1	339	11	1
1	359	11.000135334256	0
1	368	12	1
1	388	12.000135334256	0
1	397	13	1
1	417	13.000135334256	0
1	426	14	1
1	446	14.000135334256	0
1	455	15	1
1	475	15.000135334256	0
1	484	16	1
1	504	16.000135334256	0
1	513	17	1
1	533	17.000135334256	0
1	542	18	1
1	562	18.000135334256	0
1	571	19	1
1	591	19.000135334256	0
1	600	20	1
1	620	20.000135334256	0
1	629	21	1
1	649	21.000135334256	0
1	658	22	1
1	678	22.000135334256	0
1	687	23	1
1	707	23.000135334256	0
1	716	24	1
1	736	24.000135334256	0
1	745	25	1
1	765	25.000135334256	0
1	774	26	1
1	794	26.000135334256	0
1	803	27	1
1	823	27.000135334256	0
1	832	28	1
1	852	28.000135334256	0
1	861	29	1
1	881	29.000135334256	0
1	890	30	1
1	910	30.000135334256	0
1	919	31	1
1	939	31.000135334256	0
1	948	32	1
1	968	32.000135334256	0
1	977	33	1
1	997	33.000135334256	0
1	1006	34	1
1	1026	34.000135334256	0
1	1035	35	1
1	1055	35.000135334256	0
1	1064	36	1
1	1084	36.000135334256	0
1	1093	37	1
1	1113	37.000135334256	0
1	1122	38	1
1	1142	38.000135334256	0
1	1151	39	1
1	1171	39.000135334256	0
1	1180	40	1
1	1200	40.000135334256	0
1	1209	41	1
1	1229	41.000135334256	0
1	1238	42	1
1	1258	42.000135334256	0
1	1267	43	1
1	1287	43.000135334256	0
1	1296	44	1
1	1316	44.000135334256	0
1	1325	45	1
1	1345	45.000135334256	0
1	1354	46	1
1	1374	46.000135334256	0
1	1383	47	1
1	1403	47.000135334256	0
1	1412	48	1
1	1432	48.000135334256	0
1	1441	49	1
1	1461	49.000135334256	0
1	1470	50	1
1	1490	50.000135334256	0
1	1499	51	1
1	1519	51.000135334256	0
1	1528	52	1
1	1548	52.000135334256	0
1	1557	53	1
1	1577	53.000135334256	0
1	1586	54	1
1	1606	54.000135334256	0
1	1615	55	1
1	1635	55.000135334256	0
1	1644	56	1
1	1664	56.000135334256	0
1	1673	57	1
1	1693	57.000135334256	0
1	1702	58	1
1	1722	58.000135334256	0
1	1731	59	1
1	1751	59.000135334256	0
1	1760	60	1
1	1780	60.000135334256	0
1	1789	61	1
1	1809	61.000135334256	0
1	1818	62	1
1	1838	62.000135334256	0
1	1847	63	1
1	1867	63.000135334256	0
1	1876	64	1
1	1896	64.000135334256	0
1	1905	65	1
1	1925	65.000135334256	0
1	1934	66	1
1	1954	66.000135334256	0
1	1963	67	1
1	1983	67.000135334256	0
1	1992	68	1
1	2012	68.000135334256	0
1	2021	69	1
1	2041	69.000135334256	0
1	2050	70	1
1	2070	70.000135334256	0
1	2079	71	1
1	2099	71.000135334256	0
1	2108	72	1
1	2128	72.000135334256	0
1	2137	73	1
1	2157	73.000135334256	0
1	2166	74	1
1	2186	74.000135334256	0
1	2195	75	1
1	2215	75.000135334256	0
1	2224	76	1
1	2244	76.000135334256	0
1	2253	77	1
1	2273	77.000135334256	0
1	2282	78	1
1	2302	78.000135334256	0
1	2311	79	1
1	2331	79.000135334256	0
1	2340	80	1
1	2360	80.000135334256	0
1	2369	81	1
1	2389	81.000135334256	0
1	2398	82	1
1	2418	82.000135334256	0
1	2427	83	1
1	2447	83.000135334256	0
1	2456	84	1
1	2476	84.000135334256	0
1	2485	85	1
1	2505	85.000135334256	0
1	2514	86	1
1	2534	86.000135334256	0
1	2543	87	1
1	2563	87.000135334256	0
1	2572	88	1
1	2592	88.000135334256	0
1	2601	89	1
1	2621	89.000135334256	0
1	2630	90	1
1	2650	90.000135334256	0
1	2659	91	1
1	2679	91.000135334256	0
1	2688	92	1
1	2708	92.000135334256	0
1	2717	93	1
1	2737	93.000135334256	0
1	2746	94	1
1	2766	94.000135334256	0
1	2775	95	1
1	2795	95.000135334256	0
1	2804	96	1
1	2824	96.000135334256	0
1	2833	97	1
1	2853	97.000135334256	0
1	2862	98	1
1	2882	98.000135334256	0
1	2891	99	1
1	2911	99.000135334256	0
1	2920	100	1
2	0	0	0
2	0	0	0
2	9	1	1
2	10	1	0
2	35	1.000331334256	1
2	37	1.000341334256	0
2	42	1.000375334256	1
2	45	1.000805334256	0
2	76	2	1
2	77	2	0
2	105	3	1
2	106	3	0
2	134	4	1
2	135	4	0
2	163	5	1
2	164	5	0
2	192	6	1
2	193	6	0
2	221	7	1
2	222	7	0
2	250	8	1
2	251	8	0
2	279	9	1
2	280	9	0
2	308	10	1
2	309	10	0
2	337	11	1
2	338	11	0
2	366	12	1
2	367	12	0
2	395	13	1
2	396	13	0
2	424	14	1
2	425	14	0
2	453	15	1
2	454	15	0
2	482	16	1
2	483	16	0
2	511	17	1
2	512	17	0
2	540	18	1
2	541	18	0
2	569	19	1
2	570	19	0
2	598	20	1
2	599	20	0
2	627	21	1
2	628	21	0
2	656	22	1
2	657	22	0
2	685	23	1
2	686	23	0
2	714	24	1
2	715	24	0
2	743	25	1
2	744	25	0
2	772	26	1
2	773	26	0
2	801	27	1
2	802	27	0
2	830	28	1
2	831	28	0
2	859	29	1
2	860	29	0
2	888	30	1
2	889	30	0
2	917	31	1
2	918	31	0
2	946	32	1
2	947	32	0
2	975	33	1
2	976	33	0
2	1004	34	1
2	1005	34	0
2	1033	35	1
2	1034	35	0
2	1062	36	1
2	1063	36	0
2	1091	37	1
2	1092	37	0
2	1120	38	1
2	1121	38	0
2	1149	39	1
2	1150	39	0
2	1178	40	1
2	1179	40	0
2	1207	41	1
2	1208	41	0
2	1236	42	1
2	1237	42	0
2	1265	43	1
2	1266	43	0
2	1294	44	1
2	1295	44	0
2	1323	45	1
2	1324	45	0
2	1352	46	1
2	1353	46	0
2	1381	47	1
2	1382	47	0
2	1410	48	1
2	1411	48	0
2	1439	49	1
2	1440	49	0
2	1468	50	1
2	1469	50	0
2	1497	51	1
2	1498	51	0
2	1526	52	1
2	1527	52	0
2	1555	53	1
2	1556	53	0
2	1584	54	1
2	1585	54	0
2	1613	55	1
2	1614	55	0
2	1642	56	1
2	1643	56	0
2	1671	57	1
2	1672	57	0
2	1700	58	1
2	1701	58	0
2	1729	59	1
2	1730	59	0
2	1758	60	1
2	1759	60	0
2	1787	61	1
2	1788	61	0
2	1816	62	1
2	1817	62	0
2	1845	63	1
2	1846	63	0
2	1874	64	1
2	1875	64	0
2	1903	65	1
2	1904	65	0
2	1932	66	1
2	1933	66	0
2	1961	67	1
2	1962	67	0
2	1990	68	1
2	1991	68	0
2	2019	69	1
2	2020	69	0
2	2048	70	1
2	2049	70	0
2	2077	71	1
2	2078	71	0
2	2106	72	1
2	2107	72	0
2	2135	73	1
2	2136	73	0
2	2164	74	1
2	2165	74	0
2	2193	75	1
2	2194	75	0
2	2222	76	1
2	2223	76	0
2	2251	77	1
2	2252	77	0
2	2280	78	1
2	2281	78	0
2	2309	79	1
2	2310	79	0
2	2338	80	1
2	2339	80	0
2	2367	81	1
2	2368	81	0
2	2396	82	1
2	2397	82	0
2	2425	83	1
2	2426	83	0
2	2454	84	1
2	2455	84	0
2	2483	85	1
2	2484	85	0
2	2512	86	1
2	2513	86	0
2	2541	87	1
2	2542	87	0
2	2570	88	1
2	2571	88	0
2	2599	89	1
2	2600	89	0
2	2628	90	1
2	2629	90	0
2	2657	91	1
2	2658	91	0
2	2686	92	1
2	2687	92	0
2	2715	93	1
2	2716	93	0
2	2744	94	1
2	2745	94	0
2	2773	95	1
2	2774	95	0
2	2802	96	1
2	2803	96	0
2	2831	97	1
2	2832	97	0
2	2860	98	1
2	2861	98	0
2	2889	99	1
2	2890	99	0
2	2918	100	1
2	2919	100	0
3	0	0	0
4	0	0	0
5	0	0	0
6	0	0	0
6	0	0	0
6	24	1.000280667128	1
6	44	1.000376001384	0
7	0	0	0
7	0	0	0
7	24	1.000280667128	1
7	44	1.000376001384	0
8	0	0	0
8	0	0	0
8	22	1.000050667128	1
8	23	1.000280667128	0
9	0	0	0
9	56	1.000896001384	1
9	88	2.000090667128	2
9	117	3.000090667128	3
9	146	4.000090667128	4
9	175	5.000090667128	5
9	204	6.000090667128	6
9	233	7.000090667128	7
9	262	8.000090667128	8
9	291	9.000090667128	9
9	320	10.000090667128	10
9	349	11.000090667128	11
9	378	12.000090667128	12
9	407	13.000090667128	13
9	436	14.000090667128	14
9	465	15.000090667128	15
9	494	16.000090667128	16
9	523	17.000090667128	17
9	552	18.000090667128	18
9	581	19.000090667128	19
9	610	20.000090667128	20
9	639	21.000090667128	21
9	668	22.000090667128	22
9	697	23.000090667128	23
9	726	24.000090667128	24
9	755	25.000090667128	25