version 3
run General-0-20260506-12:11:10-2042
attr configname General
attr datetime 20260506-12:11:10
attr datetimef 20260506-121110
attr experiment General
attr inifile ble-omnetpp.ini
attr iterationvars ""
attr iterationvarsd ""
attr iterationvarsf ""
attr measurement ""
attr network simulations.BLEKriptoAgi
attr processid 2042
attr repetition 0
attr replication #0
attr resultdir results
attr runnumber 0
attr seedset 0
config image-path ../../inet4.5/images
config network simulations.BLEKriptoAgi
config sim-time-limit 100s
config *.sensorNode.app[0].sendInterval 1s
config *.sensorNode.app[0].messageLength 104B
config *.sensorNode.udp.procDelay 0.2474785ms
config *.sensorNode.numApps 1
config *.sensorNode.app[0].typename UdpBasicApp
config *.sensorNode.app[0].destAddresses "\"gateway(ipv6)\""
config *.sensorNode.app[0].destPort 5000
config *.sensorNode.app[0].startTime 1s
config *.radioMedium.typename Ieee802154ScalarRadioMedium
config *.radioMedium.backgroundNoise.power -110dBm
config *.radioMedium.mediumLimitCache.centerFrequency 2.4GHz
config *.radioMedium.mediumLimitCache.maxTransmissionDuration 1s
config **.wlan[*].radio.transmitter.power 2mW
config **.wlan[*].radio.receiver.sensitivity -85dBm
config *.gateway.numApps 1
config *.gateway.app[0].typename UdpSink
config *.gateway.app[0].localPort 5000
config **.wlan[*].typename Ieee802154NarrowbandInterface
config **.wlan[*].mac.typename Ieee802154Mac
config **.wlan[*].bitrate 1Mbps
config **.wlan[*].hasSixlowpan true
config **.wlan[*].mac.mtu 127B
config *.configurator.typename Ipv6FlatNetworkConfigurator
config *.*.networkLayer.typename Ipv6NetworkLayer
config *.*.hasIpv4 false
config *.*.hasIpv6 true

vector 0 BLEKriptoAgi.sensorNode.udp passedUpPk:vector(count) ETV
attr interpolationmode none
attr recordingmode vector(count)
attr source packetSentToUpper
attr title "packets passed up, count"
vector 1 BLEKriptoAgi.sensorNode.udp droppedPkWrongPort:vector(count) ETV
attr interpolationmode none
attr recordingmode vector(count)
attr source packetDropReasonIsNoPortFound(packetDropped)
attr title "packets dropped (wrong port), count"
vector 2 BLEKriptoAgi.sensorNode.udp droppedPkBadChecksum:vector(count) ETV
attr interpolationmode none
attr recordingmode vector(count)
attr source packetDropReasonIsIncorrectlyReceived(packetDropped)
attr title "packets dropped (checksum error), count"
vector 3 BLEKriptoAgi.gateway.udp passedUpPk:vector(count) ETV
attr interpolationmode none
attr recordingmode vector(count)
attr source packetSentToUpper
attr title "packets passed up, count"
vector 4 BLEKriptoAgi.gateway.udp droppedPkWrongPort:vector(count) ETV
attr interpolationmode none
attr recordingmode vector(count)
attr source packetDropReasonIsNoPortFound(packetDropped)
attr title "packets dropped (wrong port), count"
vector 5 BLEKriptoAgi.gateway.udp droppedPkBadChecksum:vector(count) ETV
attr interpolationmode none
attr recordingmode vector(count)
attr source packetDropReasonIsIncorrectlyReceived(packetDropped)
attr title "packets dropped (checksum error), count"
vector 6 BLEKriptoAgi.receiverNode.udp passedUpPk:vector(count) ETV
attr interpolationmode none
attr recordingmode vector(count)
attr source packetSentToUpper
attr title "packets passed up, count"
vector 7 BLEKriptoAgi.receiverNode.udp droppedPkWrongPort:vector(count) ETV
attr interpolationmode none
attr recordingmode vector(count)
attr source packetDropReasonIsNoPortFound(packetDropped)
attr title "packets dropped (wrong port), count"
vector 8 BLEKriptoAgi.receiverNode.udp droppedPkBadChecksum:vector(count) ETV
attr interpolationmode none
attr recordingmode vector(count)
attr source packetDropReasonIsIncorrectlyReceived(packetDropped)
attr title "packets dropped (checksum error), count"
vector 9 BLEKriptoAgi.sensorNode.energyStorage powerConsumption:vector ETV
attr interpolationmode sample-hold
attr recordingmode vector
attr source powerConsumptionChanged
attr title "Power consumption"
attr unit W
vector 10 BLEKriptoAgi.sensorNode.wlan[0].radio radioMode:vector ETV
attr interpolationmode sample-hold
attr recordingmode vector
attr source radioModeChanged
attr title "Radio mode"
vector 11 BLEKriptoAgi.sensorNode.wlan[0].radio.energyConsumer powerConsumption:vector ETV
attr interpolationmode sample-hold
attr recordingmode vector
attr source powerConsumptionChanged
attr title "Power consumption"
attr unit W
vector 12 BLEKriptoAgi.gateway.wlan[0].radio radioMode:vector ETV
attr interpolationmode sample-hold
attr recordingmode vector
attr source radioModeChanged
attr title "Radio mode"
vector 13 BLEKriptoAgi.receiverNode.wlan[0].radio radioMode:vector ETV
attr interpolationmode sample-hold
attr recordingmode vector
attr source radioModeChanged
attr title "Radio mode"
vector 14 BLEKriptoAgi.sensorNode.wlan[0].radio receptionState:vector ETV
attr interpolationmode sample-hold
attr recordingmode vector
attr source receptionStateChanged
attr title "Radio reception state"
vector 15 BLEKriptoAgi.gateway.wlan[0].radio receptionState:vector ETV
attr interpolationmode sample-hold
attr recordingmode vector
attr source receptionStateChanged
attr title "Radio reception state"
vector 16 BLEKriptoAgi.receiverNode.wlan[0].radio receptionState:vector ETV
attr interpolationmode sample-hold
attr recordingmode vector
attr source receptionStateChanged
attr title "Radio reception state"
vector 17 BLEKriptoAgi.sensorNode.ipv6.neighbourDiscovery startDad:vector ETV
attr recordingmode vector
attr title "DAD started"
vector 18 BLEKriptoAgi.sensorNode.wlan[0].queue incomingPacketLengths:vector ETV
attr interpolationmode none
attr recordingmode vector
attr source packetLength(packetPushStarted)
attr title "incoming packet lengths"
attr unit b
vector 19 BLEKriptoAgi.sensorNode.wlan[0].queue incomingDataRate:vector ETV
attr interpolationmode linear
attr recordingmode vector
attr source throughput(packetPushStarted)
attr title "incoming datarate"
attr unit bps
vector 20 BLEKriptoAgi.sensorNode.wlan[0].queue queueLength:vector ETV
attr autoWarmupFilter false
attr interpolationmode sample-hold
attr recordingmode vector
attr source "warmup(atomic(constant0(packetPushEnded) + count(packetPushStarted) - count(packetPulled) - count(packetRemoved) - count(packetDropped)))"
attr title "queue length"
attr unit pk
vector 21 BLEKriptoAgi.sensorNode.wlan[0].queue queueBitLength:vector ETV
attr autoWarmupFilter false
attr interpolationmode sample-hold
attr recordingmode vector
attr source "warmup(atomic(constant0(packetPushEnded) + sum(packetLength(packetPushStarted)) - sum(packetLength(packetPulled)) - sum(packetLength(packetRemoved)) - sum(packetLength(packetDropped))))"
attr title "queue bit length"
attr unit b
vector 22 BLEKriptoAgi.sensorNode.energyStorage residualEnergyCapacity:vector ETV
attr interpolationmode linear
attr recordingmode vector
attr source residualEnergyCapacityChanged
attr title "Residual energy capacity"
attr unit J
vector 23 BLEKriptoAgi.sensorNode.wlan[0].radio transmissionState:vector ETV
attr interpolationmode sample-hold
attr recordingmode vector
attr source transmissionStateChanged
attr title "Radio transmission state"
vector 24 BLEKriptoAgi.sensorNode.wlan[0].queue queueingTime:vector ETV
attr interpolationmode none
attr recordingmode vector
attr source queueingTime(packetPulled)
attr title "queueing times"
attr unit s
vector 25 BLEKriptoAgi.sensorNode.wlan[0].queue outgoingPacketLengths:vector ETV
attr interpolationmode none
attr recordingmode vector
attr source packetLength(packetPulled)
attr title "outgoing packet lengths"
attr unit b
vector 26 BLEKriptoAgi.sensorNode.wlan[0].queue outgoingDataRate:vector ETV
attr interpolationmode linear
attr recordingmode vector
attr source throughput(packetPulled)
attr title "outgoing datarate"
attr unit bps
vector 27 BLEKriptoAgi.receiverNode.ipv6.neighbourDiscovery startDad:vector ETV
attr recordingmode vector
attr title "DAD started"
vector 28 BLEKriptoAgi.receiverNode.wlan[0].queue incomingPacketLengths:vector ETV
attr interpolationmode none
attr recordingmode vector
attr source packetLength(packetPushStarted)
attr title "incoming packet lengths"
attr unit b
vector 29 BLEKriptoAgi.receiverNode.wlan[0].queue incomingDataRate:vector ETV
attr interpolationmode linear
attr recordingmode vector
attr source throughput(packetPushStarted)
attr title "incoming datarate"
attr unit bps
vector 30 BLEKriptoAgi.receiverNode.wlan[0].queue queueLength:vector ETV
attr autoWarmupFilter false
attr interpolationmode sample-hold
attr recordingmode vector
attr source "warmup(atomic(constant0(packetPushEnded) + count(packetPushStarted) - count(packetPulled) - count(packetRemoved) - count(packetDropped)))"
attr title "queue length"
attr unit pk
vector 31 BLEKriptoAgi.receiverNode.wlan[0].queue queueBitLength:vector ETV
attr autoWarmupFilter false
attr interpolationmode sample-hold
attr recordingmode vector
attr source "warmup(atomic(constant0(packetPushEnded) + sum(packetLength(packetPushStarted)) - sum(packetLength(packetPulled)) - sum(packetLength(packetRemoved)) - sum(packetLength(packetDropped))))"
attr title "queue bit length"
attr unit b
vector 32 BLEKriptoAgi.receiverNode.wlan[0].radio transmissionState:vector ETV
attr interpolationmode sample-hold
attr recordingmode vector
attr source transmissionStateChanged
attr title "Radio transmission state"
vector 33 BLEKriptoAgi.receiverNode.wlan[0].queue queueingTime:vector ETV
attr interpolationmode none
attr recordingmode vector
attr source queueingTime(packetPulled)
attr title "queueing times"
attr unit s
vector 34 BLEKriptoAgi.receiverNode.wlan[0].queue outgoingPacketLengths:vector ETV
attr interpolationmode none
attr recordingmode vector
attr source packetLength(packetPulled)
attr title "outgoing packet lengths"
attr unit b
vector 35 BLEKriptoAgi.receiverNode.wlan[0].queue outgoingDataRate:vector ETV
attr interpolationmode linear
attr recordingmode vector
attr source throughput(packetPulled)
attr title "outgoing datarate"
attr unit bps
vector 36 BLEKriptoAgi.gateway.ipv6.neighbourDiscovery startDad:vector ETV
attr recordingmode vector
attr title "DAD started"
vector 37 BLEKriptoAgi.gateway.wlan[0].queue incomingPacketLengths:vector ETV
attr interpolationmode none
attr recordingmode vector
attr source packetLength(packetPushStarted)
attr title "incoming packet lengths"
attr unit b
vector 38 BLEKriptoAgi.gateway.wlan[0].queue incomingDataRate:vector ETV
attr interpolationmode linear
attr recordingmode vector
attr source throughput(packetPushStarted)
attr title "incoming datarate"
attr unit bps
vector 39 BLEKriptoAgi.gateway.wlan[0].queue queueLength:vector ETV
attr autoWarmupFilter false
attr interpolationmode sample-hold
attr recordingmode vector
attr source "warmup(atomic(constant0(packetPushEnded) + count(packetPushStarted) - count(packetPulled) - count(packetRemoved) - count(packetDropped)))"
attr title "queue length"
attr unit pk
vector 40 BLEKriptoAgi.gateway.wlan[0].queue queueBitLength:vector ETV
attr autoWarmupFilter false
attr interpolationmode sample-hold
attr recordingmode vector
attr source "warmup(atomic(constant0(packetPushEnded) + sum(packetLength(packetPushStarted)) - sum(packetLength(packetPulled)) - sum(packetLength(packetRemoved)) - sum(packetLength(packetDropped))))"
attr title "queue bit length"
attr unit b
vector 41 BLEKriptoAgi.gateway.wlan[0].radio transmissionState:vector ETV
attr interpolationmode sample-hold
attr recordingmode vector
attr source transmissionStateChanged
attr title "Radio transmission state"
vector 42 BLEKriptoAgi.gateway.wlan[0].queue queueingTime:vector ETV
attr interpolationmode none
attr recordingmode vector
attr source queueingTime(packetPulled)
attr title "queueing times"
attr unit s
vector 43 BLEKriptoAgi.gateway.wlan[0].queue outgoingPacketLengths:vector ETV
attr interpolationmode none
attr recordingmode vector
attr source packetLength(packetPulled)
attr title "outgoing packet lengths"
attr unit b
vector 44 BLEKriptoAgi.gateway.wlan[0].queue outgoingDataRate:vector ETV
attr interpolationmode linear
attr recordingmode vector
attr source throughput(packetPulled)
attr title "outgoing datarate"
attr unit bps
vector 45 BLEKriptoAgi.sensorNode.app[0] packetSent:vector(packetBytes) ETV
attr interpolationmode none
attr recordingmode vector(packetBytes)
attr source packetSent
attr title "packets sent, packetBytes"
vector 46 BLEKriptoAgi.sensorNode.udp packetSent:vector(packetBytes) ETV
attr interpolationmode none
attr recordingmode vector(packetBytes)
attr source packetSent
attr title "packets sent, packetBytes"
vector 47 BLEKriptoAgi.receiverNode.wlan[0].mac packetDropNotAddressToUs:vector(packetBytes) ETV
attr interpolationmode none
attr recordingmode vector(packetBytes)
attr source packetDropReasonIsNotAddressedToUs(packetDropped)
attr title "packet drop: not addressed to us, packetBytes"
vector 48 BLEKriptoAgi.gateway.udp packetReceived:vector(packetBytes) ETV
attr interpolationmode none
attr recordingmode vector(packetBytes)
attr source packetReceived
attr title "packets received, packetBytes"
vector 49 BLEKriptoAgi.gateway.app[0] packetReceived:vector(packetBytes) ETV
attr interpolationmode none
attr recordingmode vector(packetBytes)
attr source packetReceived
attr title "packets received, packetBytes"
vector 50 BLEKriptoAgi.gateway.app[0] throughput:vector ETV
attr recordingmode vector
attr source throughput(packetReceived)
attr title throughput
attr unit bps
vector 51 BLEKriptoAgi.gateway.app[0] endToEndDelay:vector ETV
attr interpolationmode none
attr recordingmode vector
attr source dataAge(packetReceived)
attr title "end-to-end delay"
attr unit s
vector 52 BLEKriptoAgi.gateway.app[0] rcvdPkSeqNo:vector ETV
attr interpolationmode none
attr recordingmode vector
attr source appPkSeqNo(packetReceived)
attr title "received packet sequence number"
vector 53 BLEKriptoAgi.sensorNode.app[0] throughput:vector ETV
attr recordingmode vector
attr source throughput(packetReceived)
attr title throughput
attr unit bps
0	0	0	0
1	0	0	0
2	0	0	0
3	0	0	0
3	200	3.02301133564	1
3	240	3.032998004152	2
3	280	3.043304672664	3
3	330	4.011362001384	4
3	390	5.011682001384	5
3	438	6.009122001384	6
3	530	7.011682001384	7
3	581	8.012002001384	8
3	629	9.010402001384	9
3	679	10.010722001384	10
3	770	11.012322001384	11
3	823	12.010402001384	12
3	872	13.010402001384	13
3	923	14.011682001384	14
3	970	15.009442001384	15
3	1019	16.009442001384	16
3	1070	17.012962001384	17
3	1117	18.011362001384	18
3	1166	19.010722001384	19
3	1217	20.011682001384	20
3	1264	21.010722001384	21
3	1315	22.012002001384	22
3	1364	23.013282001384	23
3	1411	24.011042001384	24
3	1460	25.010082001384	25
3	1511	26.012322001384	26
3	1558	27.011682001384	27
3	1608	28.012002001384	28
3	1656	29.009122001384	29
3	1707	30.010082001384	30
3	1756	31.012642001384	31
3	1803	32.009122001384	32
3	1854	33.010722001384	33
3	1903	34.011362001384	34
3	1950	35.011042001384	35
3	2001	36.012642001384	36
3	2048	37.011042001384	37
3	2097	38.010402001384	38
3	2181	39.025666001384	39
3	2228	40.011682001384	40
3	2279	41.010402001384	41
3	2330	42.011042001384	42
3	2377	43.010402001384	43
3	2426	44.009762001384	44
3	2477	45.010722001384	45
3	2524	46.009762001384	46
3	2575	47.010402001384	47
3	2623	48.010722001384	48
3	2673	49.011682001384	49
3	2720	50.010402001384	50
3	2769	51.010082001384	51
3	2820	52.010722001384	52
3	2867	53.010402001384	53
3	2916	54.010402001384	54
3	2965	55.008802001384	55
3	3016	56.012002001384	56
3	3063	57.010082001384	57
3	3114	58.011042001384	58
3	3163	59.012322001384	59
3	3210	60.011042001384	60
3	3259	61.011042001384	61
3	3308	62.010722001384	62
3	3357	63.009762001384	63
3	3408	64.010402001384	64
3	3457	65.011042001384	65
3	3504	66.010402001384	66
3	3555	67.012002001384	67
3	3602	68.009122001384	68
3	3653	69.011042001384	69
3	3700	70.011042001384	70
3	3751	71.012642001384	71
3	3798	72.008802001384	72
3	3849	73.009762001384	73
3	3898	74.012962001384	74
3	3978	75.019138001384	75
3	4025	76.012002001384	76
3	4076	77.010402001384	77
3	4127	78.011682001384	78
3	4174	79.010722001384	79
3	4225	80.011682001384	80
3	4273	81.012002001384	81
3	4321	82.009762001384	82
3	4371	83.010082001384	83
3	4421	84.011682001384	84
3	4468	85.011682001384	85
3	4517	86.009442001384	86
3	4568	87.010082001384	87
3	4617	88.011362001384	88
3	4665	89.011682001384	89
3	4713	90.010722001384	90
3	4762	91.009442001384	91
3	4813	92.012002001384	92
3	4860	93.010082001384	93
3	4911	94.012002001384	94
3	4958	95.010402001384	95
3	5009	96.013282001384	96
3	5056	97.010722001384	97
3	5105	98.010082001384	98
3	5156	99.010722001384	99
4	0	0	0
5	0	0	0
6	0	0	0
7	0	0	0
8	0	0	0
9	0	0	0
9	0	0	0
9	0	0	0
9	0	0	0
9	0	0	5e-06
9	7	0.434475785435	0
9	7	0.434475785435	0
9	7	0.434475785435	0.005
9	8	0.434667785435	0
9	8	0.434667785435	0.075
9	11	0.437195785435	0.005
9	11	0.437195785435	0
9	11	0.437195785435	5e-06
9	11	0.437195785435	5e-06
9	11	0.437195785435	5e-06
9	24	0.566155110966	0.0001
9	29	0.568683110966	5e-06
9	36	0.980438325563	0
9	36	0.980438325563	0.05
9	39	0.982966325563	5e-06
9	53	1.000448	0
9	53	1.000448	0
9	53	1.000448	0.005
9	53	1.000448	0.005
9	54	1.00064	0
9	54	1.00064	0.075
9	57	1.003424	0.005
9	57	1.003424	0
9	57	1.003424	5e-06
9	57	1.003424	5e-06
9	57	1.003424	5e-06
9	75	2.001728	0
9	75	2.001728	0
9	75	2.001728	0.005
9	76	2.00192	0
9	76	2.00192	0.075
9	80	2.004704	0.005
9	80	2.004704	0
9	80	2.004704	5e-06
9	80	2.004704	5e-06
9	80	2.004704	5e-06
9	94	2.595822544063	0
9	94	2.595822544063	0.05
9	97	2.598094544063	5e-06
9	110	2.693996306026	0.0001
9	110	2.693996306026	0.0001
9	115	2.696268306026	5e-06
9	120	2.743193939983	0
9	120	2.743193939983	0
9	120	2.743193939983	0.005
9	121	2.743385939983	0
9	121	2.743385939983	0.075
9	124	2.745657939983	0.005
9	124	2.745657939983	0
9	124	2.745657939983	5e-06
9	124	2.745657939983	5e-06
9	124	2.745657939983	5e-06
9	137	3.001728	0
9	137	3.001728	0
9	137	3.001728	0.005
9	138	3.00192	0
9	138	3.00192	0.075
9	141	3.004704	0.005
9	141	3.004704	0
9	141	3.004704	5e-06
9	141	3.004704	5e-06
9	141	3.004704	5e-06
9	153	3.006945334256	0
9	153	3.006945334256	0.05
9	156	3.009729334256	5e-06
9	173	3.012097334256	0
9	173	3.012097334256	0
9	173	3.012097334256	0.005
9	173	3.012097334256	0.005
9	174	3.012289334256	0
9	174	3.012289334256	0.075
9	177	3.016353334256	0.005
9	177	3.016353334256	0
9	177	3.016353334256	5e-06
9	177	3.016353334256	5e-06
9	177	3.016353334256	5e-06
9	184	3.016546668512	0
9	184	3.016546668512	0.05
9	187	3.016898668512	5e-06
9	192	3.019266668512	0
9	192	3.019266668512	0
9	192	3.019266668512	0.005
9	192	3.019266668512	0.005
9	193	3.019458668512	0
9	193	3.019458668512	0.075
9	196	3.023010668512	0.005
9	196	3.023010668512	0
9	196	3.023010668512	5e-06
9	196	3.023010668512	5e-06
9	196	3.023010668512	5e-06
9	205	3.023204002768	0
9	205	3.023204002768	0.05
9	208	3.023556002768	5e-06
9	213	3.023684002768	0
9	213	3.023684002768	0
9	213	3.023684002768	0.005
9	213	3.023684002768	0.005
9	214	3.023876002768	0
9	214	3.023876002768	0.075
9	217	3.027940002768	0.005
9	217	3.027940002768	0
9	217	3.027940002768	5e-06
9	217	3.027940002768	5e-06
9	217	3.027940002768	5e-06
9	224	3.028133337024	0
9	224	3.028133337024	0.05
9	227	3.028485337024	5e-06
9	232	3.029253337024	0
9	232	3.029253337024	0
9	232	3.029253337024	0.005
9	232	3.029253337024	0.005
9	233	3.029445337024	0
9	233	3.029445337024	0.075
9	236	3.032997337024	0.005
9	236	3.032997337024	0
9	236	3.032997337024	5e-06
9	236	3.032997337024	5e-06
9	236	3.032997337024	5e-06
9	245	3.03319067128	0
9	245	3.03319067128	0.05
9	248	3.03354267128	5e-06
9	253	3.03463067128	0
9	253	3.03463067128	0
9	253	3.03463067128	0.005
9	253	3.03463067128	0.005
9	254	3.03482267128	0
9	254	3.03482267128	0.075
9	257	3.03888667128	0.005
9	257	3.03888667128	0
9	257	3.03888667128	5e-06
9	257	3.03888667128	5e-06
9	257	3.03888667128	5e-06
9	264	3.039080005536	0
9	264	3.039080005536	0.05
9	267	3.039432005536	5e-06
9	272	3.039560005536	0
9	272	3.039560005536	0
9	272	3.039560005536	0.005
9	272	3.039560005536	0.005
9	273	3.039752005536	0
9	273	3.039752005536	0.075
9	276	3.043304005536	0.005
9	276	3.043304005536	0
9	276	3.043304005536	5e-06
9	276	3.043304005536	5e-06
9	276	3.043304005536	5e-06
9	285	3.043497339792	0
9	285	3.043497339792	0.05
9	288	3.043849339792	5e-06
9	301	4.001088	0
9	301	4.001088	0
9	301	4.001088	0.005
9	301	4.001088	0.005
9	302	4.00128	0
9	302	4.00128	0.075
9	306	4.005344	0.005
9	306	4.005344	0
9	306	4.005344	5e-06
9	306	4.005344	5e-06
9	306	4.005344	5e-06
9	313	4.005537334256	0
9	313	4.005537334256	0.05
9	316	4.005889334256	5e-06
9	321	4.007617334256	0
9	321	4.007617334256	0
9	321	4.007617334256	0.005
9	321	4.007617334256	0.005
9	322	4.007809334256	0
9	322	4.007809334256	0.075
9	326	4.011361334256	0.005
9	326	4.011361334256	0
9	326	4.011361334256	5e-06
9	326	4.011361334256	5e-06
9	326	4.011361334256	5e-06
9	335	4.011554668512	0
9	335	4.011554668512	0.05
9	338	4.011906668512	5e-06
9	360	5.001088	0
9	360	5.001088	0
9	360	5.001088	0.005
9	360	5.001088	0.005
9	361	5.00128	0
9	361	5.00128	0.075
9	364	5.005344	0.005
9	364	5.005344	0
9	364	5.005344	5e-06
9	364	5.005344	5e-06
9	364	5.005344	5e-06
9	372	5.005537334256	0
9	372	5.005537334256	0.05
9	376	5.005889334256	5e-06
9	381	5.007937334256	0
9	381	5.007937334256	0
9	381	5.007937334256	0.005
9	381	5.007937334256	0.005
9	382	5.008129334256	0
9	382	5.008129334256	0.075
9	386	5.011681334256	0.005
9	386	5.011681334256	0
9	386	5.011681334256	5e-06
9	386	5.011681334256	5e-06
9	386	5.011681334256	5e-06
9	395	5.011874668512	0
9	395	5.011874668512	0.05
9	399	5.012226668512	5e-06
9	409	6.000128	0
9	409	6.000128	0
9	409	6.000128	0.005
9	409	6.000128	0.005
9	410	6.00032	0
9	410	6.00032	0.075
9	413	6.004384	0.005
9	413	6.004384	0
9	413	6.004384	5e-06
9	413	6.004384	5e-06
9	413	6.004384	5e-06
9	420	6.004577334256	0
9	420	6.004577334256	0.05
9	423	6.004929334256	5e-06
9	429	6.005377334256	0
9	429	6.005377334256	0
9	429	6.005377334256	0.005
9	429	6.005377334256	0.005
9	430	6.005569334256	0
9	430	6.005569334256	0.075
9	434	6.009121334256	0.005
9	434	6.009121334256	0
9	434	6.009121334256	5e-06
9	434	6.009121334256	5e-06
9	434	6.009121334256	5e-06
9	443	6.009314668512	0
9	443	6.009314668512	0.05
9	446	6.009666668512	5e-06
9	458	6.594862544063	0.05
9	461	6.597134544063	5e-06
9	474	6.693356306026	0.0001
9	474	6.693356306026	0.0001
9	479	6.695628306026	5e-06
9	484	6.745433939983	0
9	484	6.745433939983	0
9	484	6.745433939983	0.005
9	485	6.745625939983	0
9	485	6.745625939983	0.075
9	488	6.747897939983	0.005
9	488	6.747897939983	0
9	488	6.747897939983	5e-06
9	488	6.747897939983	5e-06
9	488	6.747897939983	5e-06
9	499	7.002368	0
9	499	7.002368	0
9	499	7.002368	0.005
9	500	7.00256	0
9	500	7.00256	0.075
9	505	7.006624	0.005
9	505	7.006624	0
9	505	7.006624	5e-06
9	505	7.006624	5e-06
9	505	7.006624	5e-06
9	512	7.006817334256	0
9	512	7.006817334256	0.05
9	515	7.007169334256	5e-06
9	520	7.007937334256	0
9	520	7.007937334256	0
9	520	7.007937334256	0.005
9	520	7.007937334256	0.005
9	521	7.008129334256	0
9	521	7.008129334256	0.075
9	526	7.011681334256	0.005
9	526	7.011681334256	0
9	526	7.011681334256	5e-06
9	526	7.011681334256	5e-06
9	526	7.011681334256	5e-06
9	535	7.011874668512	0
9	535	7.011874668512	0.05
9	538	7.012226668512	5e-06
9	551	8.002368	0
9	551	8.002368	0
9	551	8.002368	0.005
9	551	8.002368	0.005
9	552	8.00256	0
9	552	8.00256	0.075
9	555	8.006624	0.005
9	555	8.006624	0
9	555	8.006624	5e-06
9	555	8.006624	5e-06
9	555	8.006624	5e-06
9	563	8.006817334256	0
9	563	8.006817334256	0.05
9	567	8.007169334256	5e-06
9	572	8.008257334256	0
9	572	8.008257334256	0
9	572	8.008257334256	0.005
9	572	8.008257334256	0.005
9	573	8.008449334256	0
9	573	8.008449334256	0.075
9	577	8.012001334256	0.005
9	577	8.012001334256	0
9	577	8.012001334256	5e-06
9	577	8.012001334256	5e-06
9	577	8.012001334256	5e-06
9	586	8.012194668512	0
9	586	8.012194668512	0.05
9	590	8.012546668512	5e-06
9	600	9.001088	0
9	600	9.001088	0
9	600	9.001088	0.005
9	600	9.001088	0.005
9	601	9.00128	0
9	601	9.00128	0.075
9	604	9.005344	0.005
9	604	9.005344	0
9	604	9.005344	5e-06
9	604	9.005344	5e-06
9	604	9.005344	5e-06
9	611	9.005537334256	0
9	611	9.005537334256	0.05
9	614	9.005889334256	5e-06
9	620	9.006657334256	0
9	620	9.006657334256	0
9	620	9.006657334256	0.005
9	620	9.006657334256	0.005
9	621	9.006849334256	0
9	621	9.006849334256	0.075
9	625	9.010401334256	0.005
9	625	9.010401334256	0
9	625	9.010401334256	5e-06
9	625	9.010401334256	5e-06
9	625	9.010401334256	5e-06
9	634	9.010594668512	0
9	634	9.010594668512	0.05
9	637	9.010946668512	5e-06
9	649	10.001408	0
9	649	10.001408	0
9	649	10.001408	0.005
9	649	10.001408	0.005
9	650	10.0016	0
9	650	10.0016	0.075
9	654	10.005664	0.005
9	654	10.005664	0
9	654	10.005664	5e-06
9	654	10.005664	5e-06
9	654	10.005664	5e-06
9	661	10.005857334256	0
9	661	10.005857334256	0.05
9	665	10.006209334256	5e-06
9	670	10.006977334256	0
9	670	10.006977334256	0
9	670	10.006977334256	0.005
9	670	10.006977334256	0.005
9	671	10.007169334256	0
9	671	10.007169334256	0.075
9	675	10.010721334256	0.005
9	675	10.010721334256	0
9	675	10.010721334256	5e-06
9	675	10.010721334256	5e-06
9	675	10.010721334256	5e-06
9	684	10.010914668512	0
9	684	10.010914668512	0.05
9	688	10.011266668512	5e-06
9	698	10.594542544063	0.05
9	701	10.596814544063	5e-06
9	714	10.693036306026	0.0001
9	714	10.693036306026	0.0001
9	719	10.695308306026	5e-06
9	724	10.744473939983	0
9	724	10.744473939983	0
9	724	10.744473939983	0.005
9	725	10.744665939983	0
9	725	10.744665939983	0.075
9	728	10.746937939983	0.005
9	728	10.746937939983	0
9	728	10.746937939983	5e-06
9	728	10.746937939983	5e-06
9	728	10.746937939983	5e-06
9	739	11.001728	0
9	739	11.001728	0
9	739	11.001728	0.005
9	740	11.00192	0
9	740	11.00192	0.075
9	744	11.005984	0.005
9	744	11.005984	0
9	744	11.005984	5e-06
9	744	11.005984	5e-06
9	744	11.005984	5e-06
9	751	11.006177334256	0
9	751	11.006177334256	0.05
9	755	11.006529334256	5e-06
9	760	11.008577334256	0
9	760	11.008577334256	0
9	760	11.008577334256	0.005
9	760	11.008577334256	0.005
9	761	11.008769334256	0
9	761	11.008769334256	0.075
9	766	11.012321334256	0.005
9	766	11.012321334256	0
9	766	11.012321334256	5e-06
9	766	11.012321334256	5e-06
9	766	11.012321334256	5e-06
9	775	11.012514668512	0
9	775	11.012514668512	0.05
9	778	11.012866668512	5e-06
9	794	12.001408	0
9	794	12.001408	0
9	794	12.001408	0.005
9	794	12.001408	0.005
9	795	12.0016	0
9	795	12.0016	0.075
9	798	12.005664	0.005
9	798	12.005664	0
9	798	12.005664	5e-06
9	798	12.005664	5e-06
9	798	12.005664	5e-06
9	805	12.005857334256	0
9	805	12.005857334256	0.05
9	809	12.006209334256	5e-06
9	815	12.006657334256	0
9	815	12.006657334256	0
9	815	12.006657334256	0.005
9	815	12.006657334256	0.005
9	816	12.006849334256	0
9	816	12.006849334256	0.075
9	819	12.010401334256	0.005
9	819	12.010401334256	0
9	819	12.010401334256	5e-06
9	819	12.010401334256	5e-06
9	819	12.010401334256	5e-06
9	828	12.010594668512	0
9	828	12.010594668512	0.05
9	831	12.010946668512	5e-06
9	843	13.001408	0
9	843	13.001408	0
9	843	13.001408	0.005
9	843	13.001408	0.005
9	844	13.0016	0
9	844	13.0016	0.075
9	847	13.005664	0.005
9	847	13.005664	0
9	847	13.005664	5e-06
9	847	13.005664	5e-06
9	847	13.005664	5e-06
9	855	13.005857334256	0
9	855	13.005857334256	0.05
9	859	13.006209334256	5e-06
9	864	13.006657334256	0
9	864	13.006657334256	0
9	864	13.006657334256	0.005
9	864	13.006657334256	0.005
9	865	13.006849334256	0
9	865	13.006849334256	0.075
9	868	13.010401334256	0.005
9	868	13.010401334256	0
9	868	13.010401334256	5e-06
9	868	13.010401334256	5e-06
9	868	13.010401334256	5e-06
9	878	13.010594668512	0
9	878	13.010594668512	0.05
9	882	13.010946668512	5e-06
9	892	14.000768	0
9	892	14.000768	0
9	892	14.000768	0.005
9	892	14.000768	0.005
9	893	14.00096	0
9	893	14.00096	0.075
9	896	14.005024	0.005
9	896	14.005024	0
9	896	14.005024	5e-06
9	896	14.005024	5e-06
9	896	14.005024	5e-06
9	903	14.005217334256	0
9	903	14.005217334256	0.05
9	906	14.005569334256	5e-06
9	913	14.007937334256	0
9	913	14.007937334256	0
9	913	14.007937334256	0.005
9	913	14.007937334256	0.005
9	914	14.008129334256	0
9	914	14.008129334256	0.075
9	919	14.011681334256	0.005
9	919	14.011681334256	0
9	919	14.011681334256	5e-06
9	919	14.011681334256	5e-06
9	919	14.011681334256	5e-06
9	928	14.011874668512	0
9	928	14.011874668512	0.05
9	931	14.012226668512	5e-06
9	941	15.000448	0
9	941	15.000448	0
9	941	15.000448	0.005
9	941	15.000448	0.005
9	942	15.00064	0
9	942	15.00064	0.075
9	945	15.004704	0.005
9	945	15.004704	0
9	945	15.004704	5e-06
9	945	15.004704	5e-06
9	945	15.004704	5e-06
9	952	15.004897334256	0
9	952	15.004897334256	0.05
9	956	15.005249334256	5e-06
9	962	15.005697334256	0
9	962	15.005697334256	0
9	962	15.005697334256	0.005
9	962	15.005697334256	0.005
9	963	15.005889334256	0
9	963	15.005889334256	0.075
9	966	15.009441334256	0.005
9	966	15.009441334256	0
9	966	15.009441334256	5e-06
9	966	15.009441334256	5e-06
9	966	15.009441334256	5e-06
9	975	15.009634668512	0
9	975	15.009634668512	0.05
9	978	15.009986668512	5e-06
9	990	16.000448	0
9	990	16.000448	0
9	990	16.000448	0.005
9	990	16.000448	0.005
9	991	16.00064	0
9	991	16.00064	0.075
9	994	16.004704	0.005
9	994	16.004704	0
9	994	16.004704	5e-06
9	994	16.004704	5e-06
9	994	16.004704	5e-06
9	1002	16.004897334256	0
9	1002	16.004897334256	0.05
9	1006	16.005249334256	5e-06
9	1011	16.005697334256	0
9	1011	16.005697334256	0
9	1011	16.005697334256	0.005
9	1011	16.005697334256	0.005
9	1012	16.005889334256	0
9	1012	16.005889334256	0.075
9	1015	16.009441334256	0.005
9	1015	16.009441334256	0
9	1015	16.009441334256	5e-06
9	1015	16.009441334256	5e-06
9	1015	16.009441334256	5e-06
9	1025	16.009634668512	0
9	1025	16.009634668512	0.05
9	1029	16.009986668512	5e-06
9	1039	17.002048	0
9	1039	17.002048	0
9	1039	17.002048	0.005
9	1039	17.002048	0.005
9	1040	17.00224	0
9	1040	17.00224	0.075
9	1045	17.006304	0.005
9	1045	17.006304	0
9	1045	17.006304	5e-06
9	1045	17.006304	5e-06
9	1045	17.006304	5e-06
9	1052	17.006497334256	0
9	1052	17.006497334256	0.05
9	1055	17.006849334256	5e-06
9	1060	17.009217334256	0
9	1060	17.009217334256	0
9	1060	17.009217334256	0.005
9	1060	17.009217334256	0.005
9	1061	17.009409334256	0